/*--------------------------------*- C++ -*----------------------------------*\
  =========                 |
  \\      /  F ield         | OpenFOAM: The Open Source CFD Toolbox
   \\    /   O peration     | Website:  https://openfoam.org
    \\  /    A nd           | Version:  7
     \\/     M anipulation  |
\*---------------------------------------------------------------------------*/
FoamFile
{
    version     2.0;
    format      ascii;
    class       volVectorField;
    location    "82";
    object      U;
}
// * * * * * * * * * * * * * * * * * * * * * * * * * * * * * * * * * * * * * //

dimensions      [0 1 -1 0 0 0 0];

internalField   nonuniform List<vector> 
12842
(
(15.1553 3.78856 -3.13587e-18)
(15.1542 3.80865 -3.58984e-19)
(15.1517 3.83128 -6.77174e-20)
(15.1462 3.858 2.04176e-19)
(15.1371 3.89112 -5.27213e-19)
(15.1239 3.9332 0)
(15.1052 3.98678 0)
(15.079 4.05439 -7.21882e-20)
(15.0426 4.13846 1.90571e-19)
(14.9928 4.24118 -1.52383e-20)
(14.9267 4.3643 1.23038e-19)
(14.8414 4.50892 -6.39542e-20)
(14.735 4.67525 2.5804e-19)
(14.6068 4.8624 9.08585e-20)
(14.4578 5.0682 -1.15749e-19)
(14.2904 5.28888 -3.18667e-19)
(14.1086 5.51899 -2.7847e-19)
(13.918 5.75164 0)
(13.725 5.97937 2.21041e-20)
(13.5364 6.19512 1.60755e-19)
(13.3586 6.39321 2.26771e-20)
(13.196 6.56984 -1.02718e-19)
(13.0555 6.7248 7.5195e-20)
(15.1561 3.78945 2.35266e-18)
(15.1589 3.8104 0)
(15.1609 3.83403 -1.69888e-19)
(15.1606 3.86177 -1.88117e-19)
(15.158 3.89627 3.52266e-19)
(15.1527 3.94044 0)
(15.1436 3.99724 7.0659e-19)
(15.1285 4.06969 0)
(15.1047 4.16061 3.51243e-19)
(15.0687 4.27241 4.79417e-20)
(15.0168 4.40677 -2.07282e-19)
(14.9459 4.56449 -1.9682e-20)
(14.8537 4.74521 -2.52266e-19)
(14.7392 4.94734 2.52868e-19)
(14.6033 5.16801 0)
(14.448 5.40281 3.45838e-19)
(14.277 5.64561 4.01219e-19)
(14.0949 5.88897 -4.71863e-19)
(13.9079 6.12489 0)
(13.7223 6.34609 -2.11073e-19)
(13.5451 6.54676 -3.05825e-19)
(13.381 6.72416 2.77822e-19)
(13.2391 6.87548 -2.82774e-19)
(15.1569 3.79022 0)
(15.1635 3.81132 0)
(15.1691 3.83509 6.21318e-19)
(15.1734 3.86292 1.12067e-18)
(15.1766 3.89777 0)
(15.1787 3.94289 0)
(15.1788 4.00167 7.94455e-19)
(15.1747 4.07766 -1.29405e-18)
(15.1633 4.17412 -2.91257e-19)
(15.1407 4.29373 -3.49794e-19)
(15.1027 4.43817 -6.74995e-19)
(15.0456 4.60792 1.94776e-20)
(14.9667 4.80199 3.77794e-20)
(14.8651 5.01805 -2.99153e-19)
(14.7416 5.25258 0)
(14.5982 5.50067 -1.10715e-19)
(14.4382 5.75575 1.42277e-19)
(14.2657 6.00994 3.00982e-19)
(14.0863 6.25478 3.21892e-19)
(13.9062 6.48274 -2.42937e-19)
(13.7326 6.68767 2.3095e-19)
(13.5702 6.86795 0)
(13.4305 7.01758 1.04695e-19)
(15.158 3.7911 2.69462e-19)
(15.1678 3.81166 -1.0108e-20)
(15.1765 3.83501 -3.16843e-19)
(15.1845 3.86228 -3.49021e-18)
(15.193 3.89666 3.82145e-19)
(15.2022 3.94175 -2.06526e-18)
(15.2111 4.00135 3.30554e-19)
(15.2176 4.07961 1.28724e-18)
(15.2185 4.18026 2.63657e-18)
(15.2092 4.30636 -1.46293e-18)
(15.1849 4.45963 1.87224e-18)
(15.1413 4.64024 -1.10963e-19)
(15.0754 4.84652 1.44597e-19)
(14.9863 5.07538 2.45209e-19)
(14.8749 5.32264 5.33757e-20)
(14.7437 5.583 -6.89368e-20)
(14.5955 5.84969 -5.52431e-20)
(14.4339 6.11457 -1.342e-19)
(14.2638 6.36877 -1.28931e-19)
(14.0912 6.60454 -9.08923e-21)
(13.9236 6.81522 -8.20405e-20)
(13.7654 7.00028 -1.05562e-19)
(13.6304 7.15014 2.17128e-19)
(15.1594 3.7921 1.5285e-18)
(15.1716 3.81158 0)
(15.1829 3.83416 1.96794e-19)
(15.1942 3.86038 1.39667e-18)
(15.2073 3.89357 1.25688e-19)
(15.223 3.93771 6.06664e-18)
(15.2403 3.99698 6.68358e-19)
(15.2573 4.0762 -4.89385e-18)
(15.2703 4.17964 -2.93586e-18)
(15.2742 4.31084 1.7766e-18)
(15.2637 4.47165 -2.54257e-18)
(15.2336 4.66198 -1.51012e-18)
(15.1808 4.87943 2.59534e-19)
(15.1041 5.12004 -7.99213e-19)
(15.0052 5.37892 -2.30825e-19)
(14.8867 5.65046 7.42817e-20)
(14.7513 5.92791 0)
(14.602 6.20313 1.11883e-19)
(14.443 6.467 0)
(14.2798 6.71155 8.21769e-20)
(14.1202 6.92936 -1.41638e-20)
(13.968 7.121 7.94156e-20)
(13.8394 7.27283 -2.80895e-20)
(15.1609 3.79315 -1.14032e-18)
(15.1748 3.81122 0)
(15.1884 3.8328 0)
(15.2022 3.85758 3.62696e-18)
(15.2196 3.889 -3.21697e-18)
(15.2412 3.93134 -3.83943e-18)
(15.2665 3.98916 -6.77556e-18)
(15.2935 4.06801 5.46151e-18)
(15.3183 4.17273 0)
(15.3353 4.3075 2.90897e-18)
(15.3385 4.47436 2.50575e-18)
(15.3221 4.67306 7.5007e-19)
(15.2823 4.90048 0)
(15.2182 5.15165 5.50541e-19)
(15.1321 5.42087 1.94484e-19)
(15.027 5.70233 -2.93786e-20)
(14.9057 5.98952 -1.07524e-20)
(14.7704 6.27463 1.34851e-19)
(14.6244 6.54839 0)
(14.4726 6.80267 1.02677e-19)
(14.3229 7.02899 4.77662e-20)
(14.1783 7.22906 -1.60393e-19)
(14.0577 7.38454 -7.75901e-21)
(15.1626 3.79415 3.39145e-20)
(15.1773 3.81072 0)
(15.1929 3.83114 0)
(15.2087 3.85423 -3.61912e-18)
(15.2295 3.88341 3.75855e-18)
(15.2563 3.92324 -6.19466e-19)
(15.2887 3.97853 4.23454e-18)
(15.3252 4.05566 4.32435e-19)
(15.3614 4.16013 -5.66731e-19)
(15.3917 4.29686 -3.24611e-18)
(15.409 4.4683 -2.85407e-19)
(15.407 4.67419 1.96008e-18)
(15.3809 4.91065 0)
(15.33 5.17159 -1.07155e-18)
(15.2569 5.45028 6.04369e-20)
(15.1657 5.74061 -7.83638e-20)
(15.0594 6.03654 2.27381e-19)
(14.9395 6.33089 -7.52281e-20)
(14.8084 6.61448 -2.00877e-19)
(14.6701 6.8791 -2.77652e-20)
(14.5326 7.11497 1.66368e-20)
(14.3973 7.32503 9.67858e-21)
(14.286 7.4854 1.90644e-20)
(15.1644 3.79515 0)
(15.1792 3.81018 -1.7558e-19)
(15.1966 3.82929 2.40622e-18)
(15.2139 3.85047 -1.30301e-19)
(15.2379 3.87704 -4.63656e-18)
(15.2694 3.91382 8.29767e-19)
(15.3083 3.96577 -1.53479e-19)
(15.3535 4.04017 -4.03134e-18)
(15.4001 4.14303 0)
(15.4423 4.2801 -4.39233e-18)
(15.4724 4.4542 3.27084e-19)
(15.4834 4.66517 2.22416e-19)
(15.4701 4.90845 0)
(15.4319 5.17685 1.05712e-18)
(15.3721 5.46263 -7.64372e-19)
(15.2958 5.75957 0)
(15.206 6.06239 -2.25838e-19)
(15.1036 6.36501 0)
(14.9897 6.65844 1.64944e-19)
(14.867 6.93447 0)
(14.7434 7.18135 -5.94512e-20)
(14.6195 7.40387 4.72716e-20)
(14.5188 7.57115 5.81273e-20)
(15.1661 3.79584 0)
(15.1806 3.80959 0)
(15.1993 3.82769 1.74738e-19)
(15.2168 3.8475 -2.03092e-19)
(15.2422 3.87186 5.15991e-18)
(15.2767 3.90566 5.20711e-18)
(15.3204 3.95388 0)
(15.3733 4.0245 3.77728e-18)
(15.43 4.12417 0)
(15.4849 4.2597 9.07247e-18)
(15.529 4.43479 2.95574e-18)
(15.5542 4.64984 -1.74763e-18)
(15.5539 4.89999 -1.51604e-19)
(15.5267 5.17683 0)
(15.477 5.47085 8.03275e-19)
(15.4116 5.77472 5.84039e-19)
(15.335 6.08324 -4.77592e-20)
(15.2483 6.39152 3.68452e-19)
(15.1515 6.69129 3.24839e-19)
(15.0453 6.97532 0)
(14.9365 7.22997 5.88508e-20)
(14.8239 7.46268 1.06286e-20)
(14.7324 7.63598 -2.97198e-20)
(15.1682 3.79668 1.34613e-20)
(15.1819 3.80932 2.26517e-18)
(15.2018 3.82641 -2.45145e-18)
(15.2195 3.84502 0)
(15.2464 3.86747 1.10027e-19)
(15.2833 3.89899 3.58764e-19)
(15.3307 3.94446 -5.31531e-18)
(15.3892 4.01252 0)
(15.453 4.11016 0)
(15.5165 4.24491 -4.63873e-18)
(15.57 4.42091 -3.15554e-18)
(15.6048 4.63892 -6.26981e-20)
(15.6134 4.8937 1.4768e-18)
(15.5943 5.17592 -5.2885e-20)
(15.5524 5.47482 -1.19642e-19)
(15.4958 5.78248 1.42297e-19)
(15.4304 6.09403 -3.98693e-19)
(15.3572 6.40575 -3.49002e-19)
(15.2752 6.70993 -3.69142e-19)
(15.1839 7.00021 -2.9016e-19)
(15.0894 7.261 8.0511e-20)
(14.9884 7.50213 -3.5433e-19)
(14.9075 7.68065 6.16156e-20)
(15.1703 3.79742 1.48964e-18)
(15.183 3.80921 -2.55175e-18)
(15.204 3.82528 7.27531e-20)
(15.2218 3.84282 2.77678e-18)
(15.25 3.86334 -1.49496e-19)
(15.289 3.89261 -5.55726e-18)
(15.3398 3.93535 1.02848e-17)
(15.4034 4.00091 2.79734e-19)
(15.4738 4.09659 -2.02435e-19)
(15.5455 4.23062 -5.22914e-18)
(15.6081 4.40758 1.07626e-19)
(15.6525 4.62853 -2.44566e-18)
(15.6701 4.88788 -1.32503e-18)
(15.6594 5.17525 0)
(15.6257 5.47853 1.0422e-18)
(15.5787 5.7891 -1.33392e-18)
(15.5251 6.10255 -1.15946e-19)
(15.4667 6.41655 4.04492e-19)
(15.4013 6.72409 -3.03291e-21)
(15.3271 7.01994 3.73181e-19)
(15.2494 7.28641 0)
(15.1625 7.5359 1.18432e-19)
(15.095 7.71941 0)
(15.1723 3.79804 -2.58876e-18)
(15.184 3.80918 -2.75133e-18)
(15.2059 3.82426 1.30442e-19)
(15.2236 3.84085 -5.49234e-18)
(15.253 3.85946 3.15282e-18)
(15.2939 3.88651 -1.6009e-19)
(15.3477 3.92651 -5.3363e-18)
(15.4162 3.98951 8.13614e-20)
(15.4927 4.08311 -2.29378e-19)
(15.5723 4.21625 5.41206e-18)
(15.6439 4.39397 0)
(15.6978 4.6177 2.24291e-18)
(15.7247 4.88148 1.37837e-19)
(15.7227 5.17387 -5.75347e-20)
(15.6976 5.48121 -1.08128e-18)
(15.6604 5.79402 -1.27715e-20)
(15.6195 6.10826 3.77321e-19)
(15.5771 6.42323 -6.90613e-19)
(15.5303 6.73276 0)
(15.4756 7.03317 -3.07608e-19)
(15.4175 7.30451 4.11586e-19)
(15.3473 7.56225 0)
(15.2958 7.75032 -2.24983e-19)
(15.1742 3.79857 1.01608e-18)
(15.1848 3.80923 -8.42637e-20)
(15.2075 3.82333 1.32346e-19)
(15.2252 3.8391 2.67919e-18)
(15.2556 3.85583 -6.24654e-18)
(15.2981 3.8807 2.34803e-20)
(15.3547 3.91792 7.84403e-20)
(15.4276 3.97827 5.04853e-18)
(15.5101 4.06963 -1.11721e-19)
(15.5972 4.20164 0)
(15.6776 4.37983 3.93073e-18)
(15.7411 4.60605 7.91773e-20)
(15.7775 4.87409 4.69783e-20)
(15.7845 5.17139 -2.95359e-21)
(15.7681 5.48254 -1.15608e-19)
(15.741 5.79697 7.90211e-19)
(15.7135 6.11081 -4.70081e-19)
(15.6882 6.42517 -9.05947e-20)
(15.662 6.73492 -1.61687e-19)
(15.6294 7.03841 4.5042e-19)
(15.5937 7.31325 -2.99507e-19)
(15.543 7.57881 6.68801e-19)
(15.5102 7.77092 -4.43476e-19)
(15.176 3.79904 1.34844e-18)
(15.1856 3.80932 2.75069e-18)
(15.2089 3.82248 8.63937e-21)
(15.2265 3.83752 2.93887e-18)
(15.2577 3.8524 6.45347e-18)
(15.3017 3.87512 -2.40254e-20)
(15.3608 3.90956 -8.13408e-20)
(15.4379 3.96715 1.77864e-19)
(15.526 4.05613 -4.09578e-18)
(15.6206 4.18674 3.077e-18)
(15.7096 4.36511 -4.13328e-18)
(15.7829 4.59356 -2.65989e-18)
(15.8291 4.86572 1.7095e-18)
(15.8453 5.16785 0)
(15.8379 5.48262 6.68848e-19)
(15.8211 5.798 0)
(15.8072 6.1101 6.28796e-19)
(15.8003 6.42198 4.03679e-19)
(15.7965 6.7297 -1.08499e-20)
(15.7884 7.03426 -5.49226e-19)
(15.778 7.31057 -1.41878e-20)
(15.7498 7.58307 1.44059e-20)
(15.7387 7.77803 -2.09289e-19)
(15.1776 3.79947 1.32889e-19)
(15.1863 3.80946 2.84971e-20)
(15.2101 3.82171 -7.99831e-21)
(15.2276 3.83611 -2.94915e-18)
(15.2595 3.84918 -3.2477e-18)
(15.3047 3.86978 0)
(15.3663 3.9014 5.6527e-20)
(15.4472 3.95613 -5.25184e-18)
(15.5408 4.04252 -1.51923e-19)
(15.6425 4.17145 -3.08987e-18)
(15.7403 4.34968 2.26673e-18)
(15.8236 4.58007 4.19943e-18)
(15.88 4.8562 -1.66398e-18)
(15.9059 5.16318 1.04601e-18)
(15.9075 5.48147 8.07962e-20)
(15.9009 5.79714 5.57386e-21)
(15.9008 6.10595 -3.56956e-20)
(15.9128 6.41293 -1.38055e-19)
(15.9329 6.71562 9.76286e-20)
(15.9518 7.01851 -2.01053e-19)
(15.9701 7.29318 -2.42614e-20)
(15.9679 7.57076 1.71702e-19)
(15.9824 7.76717 0)
(15.1791 3.79993 1.08717e-19)
(15.1868 3.80963 0)
(15.2111 3.82101 0)
(15.2286 3.83483 -3.0521e-18)
(15.261 3.84614 -3.42771e-18)
(15.3073 3.86464 3.42081e-18)
(15.3711 3.8934 4.32923e-20)
(15.4557 3.94516 -4.79901e-20)
(15.5545 4.0288 4.33801e-18)
(15.6633 4.15576 -5.24785e-20)
(15.77 4.33352 1.62992e-19)
(15.8635 4.56557 -1.45058e-18)
(15.9305 4.84554 0)
(15.9664 5.15736 -1.11905e-18)
(15.9773 5.47906 -1.45392e-18)
(15.9808 5.79434 -5.4411e-19)
(15.9944 6.09814 -3.37402e-19)
(16.0258 6.3974 0)
(16.0714 6.69144 0)
(16.1198 6.98819 3.19131e-19)
(16.1696 7.25802 2.29988e-19)
(16.1975 7.53473 -4.98805e-19)
(16.2398 7.73361 0)
(15.1804 3.80037 -1.69551e-18)
(15.1873 3.80982 1.41338e-20)
(15.212 3.82037 -3.3223e-21)
(15.2294 3.83367 3.02907e-18)
(15.2622 3.84326 6.84108e-18)
(15.3094 3.85967 -6.84742e-18)
(15.3753 3.88553 -4.43472e-20)
(15.4633 3.93418 -4.94481e-20)
(15.5673 4.01483 6.48348e-20)
(15.683 4.1395 0)
(15.7987 4.31638 -2.29881e-18)
(15.9029 4.54971 1.58236e-18)
(15.9811 4.83332 0)
(16.0277 5.15006 0)
(16.0479 5.47523 6.8887e-19)
(16.061 5.78955 4.54452e-20)
(16.0875 6.08655 3.76429e-19)
(16.1378 6.37467 3.10048e-19)
(16.2093 6.65569 -4.90582e-19)
(16.2888 6.94053 -1.95954e-19)
(16.3724 7.20159 7.86398e-19)
(16.4346 7.47011 -7.59906e-19)
(16.5073 7.67104 5.03052e-19)
(15.1817 3.80078 9.45128e-19)
(15.1878 3.81003 1.22484e-18)
(15.2127 3.81979 1.56452e-20)
(15.2301 3.8326 -2.06641e-20)
(15.2632 3.84052 -3.46899e-18)
(15.3112 3.85484 3.49956e-18)
(15.3789 3.87776 -3.07798e-20)
(15.4702 3.92315 -1.04688e-20)
(15.5791 4.00058 6.66932e-20)
(15.7017 4.12259 2.8221e-20)
(15.8266 4.29817 -3.68503e-20)
(15.9418 4.53238 -1.57703e-18)
(16.0319 4.81946 1.066e-18)
(16.0897 5.14123 -3.98533e-20)
(16.1194 5.47005 0)
(16.1413 5.78289 -4.88779e-20)
(16.1793 6.07112 4.64512e-20)
(16.2472 6.34413 -3.04882e-19)
(16.3442 6.60676 5.96805e-19)
(16.4558 6.87252 3.89066e-19)
(16.5749 7.11863 -2.68395e-19)
(16.6752 7.37063 -4.31042e-19)
(16.7808 7.56919 5.39391e-19)
(15.1828 3.80115 3.17665e-20)
(15.1881 3.81024 -1.2357e-18)
(15.2135 3.81926 0)
(15.2306 3.8316 0)
(15.2639 3.83791 0)
(15.3126 3.85012 0)
(15.3821 3.87004 3.15491e-20)
(15.4764 3.91202 -1.52629e-20)
(15.5902 3.98599 -3.4261e-20)
(15.7196 4.10496 2.92039e-20)
(15.8538 4.27878 -3.81035e-20)
(15.9804 4.51344 0)
(16.0832 4.80379 -2.10877e-18)
(16.1529 5.13077 3.88744e-20)
(16.1919 5.46355 -7.58763e-20)
(16.2215 5.77456 5.94192e-19)
(16.2689 6.05204 -4.68723e-20)
(16.3521 6.30554 9.15631e-20)
(16.4726 6.54328 -1.05056e-19)
(16.6156 6.78117 2.09064e-19)
(16.7708 7.00322 -3.16464e-19)
(16.9116 7.22907 0)
(17.0518 7.41646 3.15088e-19)
(15.1838 3.80151 -1.94427e-18)
(15.1884 3.81045 -5.74424e-19)
(15.2141 3.81877 -9.57889e-21)
(15.2311 3.83067 1.62801e-18)
(15.2644 3.83541 1.80451e-18)
(15.3136 3.84551 1.80019e-20)
(15.3846 3.86237 -3.53528e-18)
(15.4818 3.90076 3.07894e-18)
(15.6003 3.97099 2.4423e-18)
(15.7365 4.08651 0)
(15.8802 4.25805 4.13522e-20)
(16.019 4.49266 -1.82939e-18)
(16.1353 4.78605 1.10622e-18)
(16.2176 5.1185 6.34819e-19)
(16.2662 5.4558 4.0871e-19)
(16.3019 5.76496 0)
(16.3556 6.02989 0)
(16.4499 6.25921 -3.20638e-19)
(16.5896 6.46453 -4.0972e-19)
(16.7607 6.66435 2.23583e-19)
(16.95 6.85033 1.75725e-19)
(17.1311 7.03834 2.4084e-19)
(17.3063 7.20163 -3.38507e-19)
(15.1847 3.80185 9.80841e-19)
(15.1886 3.81067 5.7798e-19)
(15.2147 3.81832 -8.24855e-21)
(15.2314 3.82978 2.3387e-20)
(15.2648 3.83295 -1.80686e-18)
(15.3145 3.84089 -1.8511e-18)
(15.3869 3.85462 1.69938e-18)
(15.4868 3.88928 -3.05391e-18)
(15.6099 3.95552 -2.43507e-18)
(15.7528 4.06718 -5.58213e-20)
(15.9063 4.23591 0)
(16.0575 4.46991 1.77126e-18)
(16.1882 4.76603 1.16715e-18)
(16.2841 5.10426 -6.73877e-19)
(16.342 5.44692 -3.5459e-19)
(16.3821 5.75474 -1.37265e-19)
(16.4378 6.00587 -9.84747e-20)
(16.5371 6.20674 6.27111e-19)
(16.689 6.37192 0)
(16.8814 6.52254 0)
(17.099 6.65778 1.90179e-19)
(17.315 6.79277 -4.60998e-19)
(17.5214 6.91525 -3.61072e-19)
(15.1855 3.80214 -9.61713e-19)
(15.1888 3.81086 0)
(15.2151 3.8179 0)
(15.2316 3.82902 -3.29974e-18)
(15.2647 3.83075 1.83241e-18)
(15.3146 3.83658 1.89687e-18)
(15.3881 3.84707 -3.18868e-20)
(15.4904 3.8777 1.56762e-18)
(15.618 3.93945 5.89263e-20)
(15.7678 4.0466 -2.00571e-18)
(15.9315 4.21171 4.45545e-20)
(16.0963 4.44436 -5.78529e-20)
(16.2429 4.74287 -1.1627e-18)
(16.3539 5.08739 7.25978e-19)
(16.4217 5.43687 3.94437e-19)
(16.4636 5.74494 -2.56642e-19)
(16.5153 5.98228 2.32427e-19)
(16.6104 6.15146 -3.06786e-19)
(16.7633 6.26899 0)
(16.9644 6.35839 0)
(17.1977 6.42662 -1.64768e-19)
(17.436 6.49244 1.24893e-19)
(17.6644 6.55742 -3.78967e-19)
(15.1861 3.80253 2.29996e-20)
(15.1891 3.811 -5.86317e-19)
(15.2158 3.81734 0)
(15.232 3.82782 8.23995e-19)
(15.2656 3.8278 -3.73113e-18)
(15.3163 3.83131 1.90119e-20)
(15.3915 3.83865 -6.13662e-20)
(15.4966 3.86557 -1.62526e-18)
(15.6284 3.92327 3.77819e-20)
(15.7845 4.02615 2.00874e-18)
(15.9578 4.18754 -4.32947e-20)
(16.1353 4.41837 -9.67968e-19)
(16.2975 4.71872 -7.59617e-20)
(16.4234 5.06952 -6.73746e-19)
(16.5004 5.42687 -4.41428e-19)
(16.5419 5.73705 4.13875e-20)
(16.584 5.96187 0)
(16.6652 6.09814 -4.15567e-20)
(16.8047 6.16319 5.29037e-20)
(16.997 6.18352 0)
(17.2274 6.17423 1.56038e-19)
(17.4681 6.15916 -1.22754e-19)
(17.698 6.15141 0)
(15.1866 3.80269 9.42151e-19)
(15.1889 3.81157 5.86095e-19)
(15.2156 3.81783 0)
(15.2314 3.8288 8.31131e-19)
(15.2641 3.8284 3.76542e-18)
(15.3141 3.83046 1.95368e-18)
(15.3896 3.8345 3.73738e-18)
(15.4964 3.85646 0)
(15.6323 3.90797 2.71611e-18)
(15.7951 4.004 -2.07403e-18)
(15.9792 4.15891 1.49831e-18)
(16.172 4.38527 9.99334e-19)
(16.3537 4.68586 -9.52292e-21)
(16.4992 5.04381 1.23198e-20)
(16.5884 5.41344 -4.21381e-19)
(16.6274 5.73278 2.40308e-19)
(16.6501 5.95167 0)
(16.7001 6.05786 1.03355e-19)
(16.8043 6.06833 0)
(16.9639 6.0125 0)
(17.1652 5.91366 -1.52237e-19)
(17.3772 5.80609 -3.56926e-19)
(17.5774 5.71643 3.08917e-19)
(15.187 3.80279 0)
(15.1891 3.81183 -3.09013e-23)
(15.216 3.8179 1.07908e-22)
(15.2315 3.82892 -8.44494e-19)
(15.2642 3.82809 -9.33076e-19)
(15.3144 3.82914 -1.9539e-18)
(15.3904 3.83118 -1.88365e-18)
(15.4986 3.85008 -1.8739e-21)
(15.6374 3.89746 -1.33043e-18)
(15.8051 3.98843 -4.52596e-20)
(15.9973 4.13793 4.128e-20)
(16.2026 4.35981 0)
(16.4016 4.65934 9.81289e-21)
(16.5661 5.02237 -1.26725e-20)
(16.669 5.40326 6.1662e-19)
(16.7069 5.73412 1.49683e-20)
(16.7076 5.9541 0)
(16.7161 6.04092 -4.45208e-21)
(16.7655 6.0067 -3.4367e-20)
(16.8631 5.87966 0)
(16.999 5.69778 0)
(17.1488 5.51641 1.85847e-19)
(17.2933 5.3656 -1.58725e-19)
(15.1875 3.80287 8.74697e-19)
(15.1893 3.81204 6.23341e-19)
(15.2163 3.81791 0)
(15.2317 3.82893 8.4563e-19)
(15.2642 3.8276 -9.623e-19)
(15.3146 3.82759 -2.02668e-18)
(15.3912 3.82765 1.95428e-18)
(15.5008 3.84355 -1.72192e-18)
(15.6423 3.88691 -1.38675e-18)
(15.8148 3.97288 3.20585e-18)
(16.0152 4.11689 -1.53994e-18)
(16.2334 4.33398 -1.0869e-18)
(16.4504 4.63196 -7.02424e-19)
(16.6354 5.00007 0)
(16.7538 5.39411 -2.08426e-19)
(16.7904 5.74219 1.8443e-19)
(16.7645 5.97387 5.34022e-21)
(16.7188 6.05404 -7.72012e-20)
(16.6909 5.9847 0)
(16.7005 5.79974 0)
(16.7566 5.56478 0)
(16.8401 5.3441 -2.09217e-19)
(16.914 5.14874 2.16925e-19)
(15.1879 3.80293 -8.76111e-19)
(15.1895 3.81223 1.17901e-20)
(15.2166 3.8179 0)
(15.2318 3.82891 -8.71823e-19)
(15.2642 3.82708 -9.93481e-23)
(15.3147 3.826 3.0633e-18)
(15.3918 3.82406 -3.94805e-18)
(15.5028 3.83696 5.23584e-18)
(15.6469 3.87623 -1.53982e-21)
(15.8241 3.95706 -1.08119e-18)
(16.0327 4.09522 -8.13088e-19)
(16.2639 4.30689 1.0876e-18)
(16.4998 4.60256 6.9245e-19)
(16.7071 4.97561 -4.18016e-19)
(16.8433 5.38504 2.59138e-21)
(16.8804 5.75726 -1.86231e-19)
(16.825 6.01236 0)
(16.713 6.09941 0)
(16.5898 6.01344 -2.16506e-20)
(16.5028 5.80346 0)
(16.4737 5.54702 0)
(16.4616 5.29144 2.87101e-20)
(16.422 5.04433 3.78281e-20)
(15.1882 3.80295 0)
(15.1896 3.8124 -6.37019e-19)
(15.2168 3.81786 2.28164e-23)
(15.2319 3.82887 -1.71096e-20)
(15.2642 3.82656 -8.21423e-23)
(15.3147 3.82442 -2.08924e-18)
(15.3922 3.82048 1.99365e-18)
(15.5045 3.83033 -3.51501e-18)
(15.6511 3.86543 -1.46526e-18)
(15.8329 3.94089 0)
(16.0496 4.07277 8.09009e-19)
(16.2939 4.27827 2.18035e-21)
(16.5493 4.57066 -7.8532e-23)
(16.7807 4.94825 4.14479e-19)
(16.9381 5.37514 0)
(16.979 5.77829 6.93779e-20)
(16.8936 6.06965 -7.24725e-22)
(16.7093 6.18667 0)
(16.4877 6.1225 2.14319e-20)
(16.2985 5.92292 0)
(16.1484 5.65511 0)
(16.0043 5.37997 0)
(15.8662 5.12793 -3.27465e-20)
(15.1886 3.80295 0)
(15.1897 3.81256 3.31845e-19)
(15.217 3.81782 -4.46668e-24)
(15.2319 3.82884 8.91275e-19)
(15.2641 3.82605 1.03958e-18)
(15.3146 3.82286 2.12981e-18)
(15.3926 3.81692 0)
(15.5059 3.82368 -1.81374e-18)
(15.655 3.85451 2.95359e-18)
(15.8413 3.92438 -1.98885e-23)
(16.0658 4.04952 8.44533e-19)
(16.3232 4.248 -5.89174e-19)
(16.5989 4.53598 0)
(16.8565 4.91735 0)
(17.039 5.36317 2.12907e-19)
(17.0892 5.80406 -6.81999e-20)
(16.9789 6.14992 0)
(16.7284 6.33261 1.22124e-19)
(16.4102 6.32565 1.31776e-19)
(16.0968 6.14846 0)
(15.8126 5.89606 -1.74348e-21)
(15.5851 5.67133 1.38605e-22)
(15.3973 5.46998 2.14144e-20)
(15.1889 3.80292 3.60133e-24)
(15.1899 3.81269 -6.7154e-19)
(15.2172 3.81776 -1.09465e-23)
(15.232 3.8288 0)
(15.2641 3.82556 1.93841e-20)
(15.3145 3.82133 -2.16822e-18)
(15.3928 3.81339 -4.40047e-22)
(15.5072 3.81703 1.81488e-18)
(15.6586 3.84348 -1.48777e-18)
(15.8491 3.90753 1.16495e-18)
(16.0813 4.02544 1.65368e-20)
(16.3519 4.21602 1.19367e-18)
(16.6485 4.49825 -7.97573e-19)
(16.9346 4.88217 1.8487e-21)
(17.1475 5.34777 -4.31388e-19)
(17.2156 5.83432 5.24159e-20)
(17.0932 6.25684 2.76675e-21)
(16.7869 6.53174 -1.24227e-19)
(16.3615 6.58496 -1.29281e-19)
(15.9137 6.44028 0)
(15.5386 6.25429 -1.21225e-19)
(15.2476 6.08063 0)
(14.9358 5.86072 6.14858e-20)
(15.1893 3.80286 0)
(15.19 3.81281 3.39685e-19)
(15.2174 3.81768 4.69157e-19)
(15.2321 3.82876 4.91843e-23)
(15.264 3.82509 -2.14081e-18)
(15.3144 3.81983 1.09425e-18)
(15.393 3.80989 0)
(15.5084 3.81038 0)
(15.6619 3.83236 -8.22294e-22)
(15.8566 3.89035 -1.1643e-18)
(16.0963 4.00056 1.63621e-20)
(16.38 4.18226 -6.03631e-19)
(16.6982 4.4572 7.92991e-19)
(17.0151 4.84193 0)
(17.2645 5.32761 2.17317e-19)
(17.3629 5.86736 -5.06541e-20)
(17.2438 6.38027 -5.525e-20)
(16.8846 6.74712 -9.08312e-21)
(16.3464 6.86362 0)
(15.7892 6.81411 0)
(15.3186 6.72436 4.2986e-20)
(14.8452 6.50664 2.04707e-19)
(14.2854 6.17348 -9.64019e-20)
(15.1896 3.80277 0)
(15.1902 3.8129 -1.72937e-23)
(15.2176 3.81759 -4.69703e-19)
(15.2322 3.82872 4.86201e-19)
(15.2639 3.82464 1.08032e-18)
(15.3143 3.81837 2.31938e-22)
(15.393 3.80643 1.07219e-18)
(15.5094 3.80373 9.41228e-19)
(15.6649 3.82114 -1.54531e-18)
(15.8635 3.87286 0)
(16.1106 3.97485 1.62939e-20)
(16.4073 4.14668 -6.36101e-19)
(16.7475 4.41256 0)
(17.0978 4.79585 -6.6037e-21)
(17.3908 5.30085 2.5028e-19)
(17.5329 5.8965 0)
(17.4293 6.4974 5.58593e-21)
(17.0265 6.9565 2.21686e-20)
(16.4165 7.21495 -3.624e-19)
(15.7876 7.39237 0)
(15.1218 7.43249 0)
(14.3539 7.19191 -1.07972e-19)
(13.6008 6.84703 4.42891e-19)
(15.1899 3.80265 -7.66065e-24)
(15.1903 3.81298 1.01094e-23)
(15.2178 3.81749 0)
(15.2323 3.82868 5.0258e-19)
(15.2638 3.8242 -5.80449e-22)
(15.3141 3.81694 4.70029e-22)
(15.393 3.803 -1.07257e-18)
(15.5102 3.7971 -9.4284e-19)
(15.6676 3.80984 1.54633e-18)
(15.87 3.85505 -1.21256e-18)
(16.1241 3.94834 -8.96069e-19)
(16.4336 4.10922 6.40742e-19)
(16.7962 4.36408 4.36294e-19)
(17.1824 4.74309 2.61422e-19)
(17.5262 5.26454 -2.36158e-19)
(17.7239 5.91099 6.01296e-21)
(17.6508 6.5923 9.29435e-20)
(17.2521 7.19013 1.25671e-19)
(16.6663 7.74491 1.18763e-19)
(15.973 8.26471 -1.68529e-19)
(15.0258 8.49325 2.05461e-19)
(14.0048 8.41316 0)
(13.1634 8.25088 -2.09614e-19)
(15.1903 3.8025 0)
(15.1905 3.81303 3.65727e-19)
(15.218 3.81737 4.9539e-19)
(15.2324 3.82863 -4.88473e-19)
(15.2637 3.82378 5.63014e-19)
(15.3138 3.81554 0)
(15.3928 3.79961 1.27356e-21)
(15.5107 3.79047 -1.66637e-21)
(15.6699 3.79846 7.90223e-19)
(15.8759 3.83695 1.83141e-18)
(16.1368 3.92102 -9.21828e-19)
(16.4586 4.06987 -4.92329e-21)
(16.8439 4.31155 1.80138e-20)
(17.2683 4.6827 -2.67442e-19)
(17.6692 5.21474 0)
(17.9335 5.90098 7.19229e-20)
(17.9227 6.66693 7.27877e-20)
(17.6238 7.49141 -1.46319e-19)
(17.1531 8.44913 -1.3446e-19)
(16.3455 9.27064 -5.21571e-20)
(15.101 9.64633 2.37104e-19)
(13.9064 9.7511 -1.96626e-19)
(12.9301 9.72816 -2.84813e-19)
(15.1906 3.80232 2.31896e-19)
(15.1906 3.81306 4.70857e-21)
(15.2182 3.81723 -4.95947e-19)
(15.2324 3.82858 -5.01921e-19)
(15.2636 3.82338 -1.13295e-18)
(15.3135 3.81417 -1.16173e-18)
(15.3926 3.79626 -1.28595e-21)
(15.5111 3.78385 1.68244e-21)
(15.672 3.78701 -7.90719e-19)
(15.8813 3.81857 -6.16072e-19)
(16.1485 3.89294 1.86828e-18)
(16.4824 4.02863 -6.87563e-19)
(16.8902 4.2548 -4.59458e-19)
(17.3545 4.61365 3.01707e-19)
(17.8176 5.1474 -6.31568e-21)
(18.1622 5.8609 -6.48842e-20)
(18.2683 6.72991 -9.06524e-20)
(18.1764 7.84925 2.33296e-19)
(17.8289 9.16101 1.04679e-19)
(16.7914 10.0837 0)
(15.2386 10.4372 -3.11772e-19)
(13.8736 10.5405 3.79868e-19)
(12.6653 10.4536 -5.63186e-19)
(15.1909 3.80211 -2.32108e-19)
(15.1907 3.81307 -5.58978e-19)
(15.2184 3.81708 -5.09325e-19)
(15.2325 3.82852 5.13687e-19)
(15.2634 3.82299 5.69778e-19)
(15.3132 3.81284 1.1625e-18)
(15.3922 3.79295 1.11745e-18)
(15.5113 3.77726 0)
(15.6736 3.7755 8.08509e-19)
(15.886 3.79993 -6.33095e-19)
(16.1592 3.86413 -9.42688e-19)
(16.5045 3.98553 6.87256e-19)
(16.9346 4.19368 0)
(17.4397 4.5349 -2.82956e-19)
(17.969 5.05927 1.5445e-19)
(18.4127 5.78874 -6.54596e-20)
(18.7026 6.77845 -3.73411e-20)
(18.8839 8.18654 -9.72733e-20)
(18.5633 9.67792 3.94165e-19)
(17.142 10.4822 -2.90195e-19)
(15.244 10.6646 0)
(13.6567 10.6215 8.80941e-19)
(12.1438 10.3825 -1.16526e-18)
(15.1912 3.80187 0)
(15.1909 3.81305 1.87946e-19)
(15.2186 3.81692 5.0965e-19)
(15.2326 3.82846 -5.14266e-19)
(15.2632 3.82262 -1.38974e-22)
(15.3128 3.81154 4.90102e-22)
(15.3918 3.78968 -5.53314e-19)
(15.5114 3.77069 0)
(15.675 3.76394 -8.08996e-19)
(15.8902 3.78105 -8.73191e-21)
(16.1689 3.83462 0)
(16.525 3.94062 -3.62299e-19)
(16.9767 4.12812 0)
(17.5226 4.44561 1.95455e-20)
(18.1212 4.94836 -3.80431e-19)
(18.6866 5.68289 4.16724e-20)
(19.2197 6.79068 -2.6377e-20)
(19.6735 8.40315 1.15296e-19)
(19.2219 9.87631 -1.61887e-19)
(17.2808 10.4346 -3.54461e-19)
(15.0165 10.4045 5.92016e-19)
(13.1994 10.2011 -5.97242e-19)
(11.413 9.85144 2.1156e-18)
(15.1915 3.8016 -2.3337e-19)
(15.191 3.81302 1.92643e-19)
(15.2188 3.81673 -2.60696e-19)
(15.2326 3.82839 -2.88575e-22)
(15.263 3.82226 6.1291e-22)
(15.3123 3.81027 -1.22893e-21)
(15.3912 3.78646 -5.64821e-19)
(15.5112 3.76415 3.97938e-21)
(15.6761 3.75234 -2.92608e-21)
(15.8938 3.76196 -8.81693e-21)
(16.1776 3.80446 -4.97634e-19)
(16.5436 3.89398 3.49937e-19)
(17.0157 4.05811 1.57051e-20)
(17.6014 4.34527 -2.15626e-20)
(18.272 4.81372 2.24822e-19)
(18.9812 5.53955 0)
(19.7922 6.73237 3.77003e-20)
(20.4605 8.4218 -8.19733e-20)
(19.7206 9.73141 1.53042e-19)
(17.1881 10.0256 -4.95409e-19)
(14.581 9.82498 2.74176e-19)
(12.5825 9.50992 -6.89943e-20)
(10.6068 9.11805 -1.0422e-18)
(15.1918 3.8013 4.66447e-19)
(15.1911 3.81296 -1.92832e-19)
(15.2189 3.81653 -2.89127e-21)
(15.2326 3.82831 0)
(15.2628 3.82191 0)
(15.3118 3.80903 -6.0584e-19)
(15.3906 3.78328 -5.76325e-19)
(15.5109 3.75764 0)
(15.6768 3.74072 -3.65364e-21)
(15.8969 3.74268 6.56276e-19)
(16.1851 3.77371 5.06401e-19)
(16.5602 3.84571 -1.10344e-20)
(17.0511 3.98373 -1.80949e-20)
(17.6747 4.23381 4.66013e-20)
(18.4186 4.65519 -2.95713e-20)
(19.2876 5.3525 0)
(20.3804 6.56978 -9.77322e-20)
(21.1753 8.20589 -3.93387e-20)
(20.0346 9.27852 1.43608e-19)
(16.9003 9.35388 -1.26718e-19)
(13.9813 9.03676 -3.49452e-19)
(11.8515 8.63791 5.86395e-19)
(9.78065 8.24068 0)
(15.192 3.80096 -4.65579e-19)
(15.1912 3.81287 2.18339e-23)
(15.2191 3.81631 2.64111e-19)
(15.2327 3.82823 0)
(15.2626 3.82157 0)
(15.3113 3.80783 -5.68096e-21)
(15.3899 3.78015 1.15831e-18)
(15.5104 3.75117 0)
(15.6772 3.72909 4.23666e-19)
(15.8993 3.72325 0)
(16.1914 3.74245 0)
(16.5744 3.79594 -1.31794e-20)
(17.0823 3.9052 1.67928e-20)
(17.7407 4.1116 1.82724e-19)
(18.5574 4.47303 3.25625e-20)
(19.5918 5.11479 -3.96353e-20)
(20.9416 6.27948 1.18878e-19)
(21.7729 7.75352 0)
(20.1766 8.57204 -2.2011e-20)
(16.4635 8.49688 0)
(13.2471 8.12166 -1.02179e-20)
(11.0474 7.66715 -6.77501e-20)
(9.05054 7.2749 0)
(15.1923 3.80059 3.48833e-19)
(15.1914 3.81276 -1.00703e-19)
(15.2193 3.81607 0)
(15.2327 3.82814 2.7234e-19)
(15.2624 3.82125 -3.0465e-19)
(15.3108 3.80667 6.13073e-19)
(15.3892 3.77708 -5.82954e-19)
(15.5098 3.74475 -5.18715e-19)
(15.6773 3.71745 -4.20899e-19)
(15.901 3.70368 -5.85093e-21)
(16.1965 3.71073 7.54714e-21)
(16.5862 3.74485 3.99972e-19)
(17.1085 3.82287 2.01989e-20)
(17.7979 3.97943 -2.63142e-19)
(18.6837 4.26798 3.57534e-20)
(19.8766 4.8212 0)
(21.4371 5.85259 0)
(22.2294 7.08554 0)
(20.1798 7.66901 0)
(15.9429 7.52383 -4.27689e-20)
(12.4421 7.16512 -6.57089e-21)
(10.1906 6.68266 7.67594e-20)
(8.34879 6.29864 0)
(15.1925 3.80019 -1.16251e-19)
(15.1915 3.81263 2.03049e-19)
(15.2194 3.81581 0)
(15.2328 3.82804 -2.72692e-19)
(15.2622 3.82095 6.13722e-19)
(15.3102 3.80554 0)
(15.3883 3.77405 0)
(15.5089 3.73838 5.16717e-19)
(15.677 3.70583 0)
(15.9021 3.68403 -3.36963e-19)
(16.2002 3.67865 -2.73186e-19)
(16.5953 3.69262 -1.9565e-19)
(17.1293 3.7372 3.12993e-19)
(17.8446 3.83843 0)
(18.7921 4.04135 0)
(20.1239 4.4702 7.00533e-20)
(21.8356 5.29418 -8.31453e-20)
(22.5371 6.23398 0)
(20.0885 6.61583 -1.22321e-19)
(15.4107 6.47638 4.53335e-20)
(11.6131 6.20315 3.47298e-19)
(9.24173 5.70547 -4.64409e-19)
(7.73867 5.266 0)
(15.1927 3.79976 1.70434e-23)
(15.1916 3.81247 -2.06224e-19)
(15.2196 3.81554 -8.79948e-23)
(15.2328 3.82793 -1.39564e-19)
(15.2619 3.82065 -3.09067e-19)
(15.3097 3.80444 3.15758e-19)
(15.3874 3.77109 1.01515e-21)
(15.508 3.73207 -2.65552e-19)
(15.6764 3.69423 4.43756e-19)
(15.9026 3.66431 3.38137e-19)
(16.2027 3.64627 2.65691e-19)
(16.6017 3.63949 -2.04646e-19)
(17.1441 3.64879 -3.13135e-19)
(17.8794 3.69009 -3.4318e-20)
(18.8771 3.79533 4.24465e-20)
(20.317 4.0651 8.6498e-20)
(22.1144 4.62052 -1.03166e-19)
(22.6946 5.23413 0)
(19.9363 5.44454 1.26998e-19)
(14.9239 5.36681 0)
(10.8184 5.23766 -6.55791e-20)
(8.20695 4.78093 0)
(7.1377 4.17513 -5.29686e-20)
(15.193 3.79929 5.84429e-20)
(15.1917 3.81229 1.03875e-19)
(15.2198 3.81524 1.40186e-19)
(15.2329 3.82781 -1.35753e-21)
(15.2617 3.82037 -5.07932e-22)
(15.309 3.80338 3.8422e-21)
(15.3864 3.76817 -3.02611e-19)
(15.5068 3.72582 -4.01945e-21)
(15.6755 3.68267 -4.3711e-19)
(15.9024 3.64455 -6.09305e-21)
(16.2037 3.6137 2.80869e-19)
(16.6051 3.58569 0)
(17.1525 3.55832 -2.34072e-20)
(17.9009 3.53612 2.94503e-20)
(18.9335 3.53324 1.04315e-19)
(20.4419 3.61411 0)
(22.2583 3.85691 0)
(22.7034 4.1254 -1.38643e-19)
(19.7352 4.17906 0)
(14.4929 4.18493 6.46229e-19)
(10.0153 4.23815 -9.4285e-19)
(6.93435 3.93589 1.20279e-19)
(5.83278 3.22183 2.53727e-18)
(15.1932 3.79879 -1.17149e-19)
(15.1918 3.81208 -5.34265e-20)
(15.2199 3.81493 -2.11094e-19)
(15.2329 3.82768 1.42143e-19)
(15.2614 3.82009 1.59235e-19)
(15.3084 3.80235 -4.8139e-19)
(15.3853 3.76532 3.03168e-19)
(15.5055 3.71964 2.63269e-19)
(15.6742 3.67116 7.05448e-21)
(15.9015 3.6248 -5.07331e-21)
(16.2033 3.58102 -2.73209e-19)
(16.6056 3.53149 -1.08677e-19)
(17.1541 3.46656 1.47349e-19)
(17.9078 3.37854 1.68798e-19)
(18.9569 3.25963 -1.04772e-19)
(20.4886 3.12987 0)
(22.2603 3.03456 0)
(22.568 2.95409 -3.75591e-19)
(19.5042 2.85363 5.00495e-19)
(14.1602 2.94301 0)
(9.31554 3.22979 -1.6696e-19)