/*--------------------------------*- C++ -*----------------------------------*\
  =========                 |
  \\      /  F ield         | OpenFOAM: The Open Source CFD Toolbox
   \\    /   O peration     | Website:  https://openfoam.org
    \\  /    A nd           | Version:  7
     \\/     M anipulation  |
\*---------------------------------------------------------------------------*/
FoamFile
{
    version     2.0;
    format      ascii;
    class       volScalarField;
    location    "82";
    object      yPlus;
}
// * * * * * * * * * * * * * * * * * * * * * * * * * * * * * * * * * * * * * //

dimensions      [0 0 0 0 0 0 0];

internalField   uniform 0;

boundaryField
{
    inlet
    {
        type            calculated;
        value           uniform 0;
    }
    outlet
    {
        type            calculated;
        value           uniform 0;
    }
    suction_side
    {
        type            calculated;
        value           nonuniform List<scalar> 
56
(
13.3877
13.4778
15.1484
15.4121
18.0433
19.0518
24.8579
28.8355
35.4586
35.9805
26.3917
23.814
29.1776
29.4961
28.4785
28.3277
33.4132
40.1604
42.0177
45.503
46.9645
38.5486
46.3251
48.165
44.6256
40.9183
37.7943
34.8401
32.5848
30.8417
29.4848
30.5338
31.0603
33.9922
36.1298
42.108
44.7258
45.2225
44.8827
27.3279
21.6541
27.2484
33.0194
36.4691
38.6408
39.6326
39.5232
37.8478
34.4691
29.3485
23.464
19.6054
19.2237
20.5639
20.6101
21.7812
)
;
    }
    pressure_side
    {
        type            calculated;
        value           nonuniform List<scalar> 
56
(
49.7158
47.7556
45.813
45.5299
43.7318
43.0566
41.9185
40.9244
40.0724
39.4997
39.0362
38.6592
38.3488
38.0787
37.8477
37.6426
37.4652
37.3076
37.1591
37.0017
36.8159
36.5914
36.332
36.0593
35.8097
35.6352
35.5922
35.7011
35.9681
36.3358
36.6996
36.9231
36.757
35.7659
34.2245
31.9932
29.0562
25.4065
21.1913
16.7716
12.6809
9.65111
5.90188
5.17697
5.32352
6.06688
6.69306
8.15496
8.99588
9.50083
10.9795
10.781
11.8042
11.453
12.3468
12.3146
)
;
    }
    trailing_edge
    {
        type            calculated;
        value           nonuniform List<scalar> 2(156.738 107.71);
    }
    defaultFaces
    {
        type            empty;
    }
}


// ************************************************************************* //
