/*--------------------------------*- C++ -*----------------------------------*\
  =========                 |
  \\      /  F ield         | OpenFOAM: The Open Source CFD Toolbox
   \\    /   O peration     | Website:  https://openfoam.org
    \\  /    A nd           | Version:  7
     \\/     M anipulation  |
\*---------------------------------------------------------------------------*/
FoamFile
{
    version     2.0;
    format      ascii;
    class       volScalarField;
    location    "50";
    object      k;
}
// * * * * * * * * * * * * * * * * * * * * * * * * * * * * * * * * * * * * * //

dimensions      [0 2 -2 0 0 0 0];

internalField   nonuniform List<scalar> 
12842
(
0.00569885
0.00511447
0.00475345
0.00449181
0.00432092
0.00419011
0.00411013
0.00404506
0.0040036
0.00396689
0.00394046
0.00392321
0.00391653
0.0039219
0.00393382
0.00395098
0.00396787
0.0039919
0.00401038
0.00403751
0.0040532
0.00407467
0.00408619
0.00567831
0.00506592
0.00473133
0.00448432
0.00431937
0.00418758
0.00410785
0.00404342
0.00400219
0.00396568
0.0039406
0.00392176
0.00391625
0.00392255
0.00393565
0.00395527
0.00397112
0.00399598
0.00401393
0.00404234
0.00405746
0.00408386
0.00409417
0.00565261
0.00502636
0.0046585
0.00442172
0.00428143
0.00415543
0.00408126
0.00402979
0.00399234
0.00395604
0.00393465
0.00391486
0.00391409
0.00392194
0.0039376
0.00396065
0.00398118
0.00401027
0.00403356
0.00406697
0.00408508
0.00412766
0.00414064
0.00560188
0.00498034
0.0046313
0.00439796
0.00426143
0.0041391
0.00407008
0.00401202
0.00398406
0.00395127
0.00393152
0.00391219
0.00391275
0.00392227
0.00394005
0.00396594
0.00398731
0.00402055
0.00404541
0.00408863
0.00411078
0.00416011
0.00422439
0.00556207
0.00491227
0.00455724
0.00433652
0.00422014
0.00410823
0.00404121
0.00399532
0.00396856
0.00393948
0.00392383
0.00390756
0.00391038
0.00392264
0.00394411
0.00397624
0.00400508
0.00404931
0.0040878
0.00414292
0.00417746
0.0042232
0.00431765
0.0055166
0.0048701
0.00452699
0.00431237
0.00419109
0.00409401
0.00403109
0.00398096
0.0039605
0.0039341
0.00391945
0.00390396
0.0039078
0.00392323
0.00394786
0.00398424
0.00401987
0.00407199
0.00411742
0.00419382
0.00424797
0.00430713
0.00442115
0.00546504
0.00480453
0.0044607
0.00426032
0.00415303
0.00406442
0.00401108
0.00396395
0.00394499
0.00392366
0.0039139
0.00390126
0.00390633
0.00392509
0.00395824
0.00400256
0.00406056
0.00413179
0.00419614
0.00429384
0.00437095
0.00445104
0.00458265
0.00542752
0.00476936
0.00443417
0.00423934
0.0041275
0.00405094
0.00400219
0.00395677
0.00393897
0.00391618
0.00390844
0.00389851
0.00390451
0.00392526
0.00396686
0.00402637
0.00409613
0.0041923
0.00427239
0.00439641
0.00449301
0.00459862
0.00474419
0.00537569
0.00471117
0.00438117
0.0041975
0.00409419
0.00402516
0.00398431
0.00394604
0.00392834
0.00391095
0.0039027
0.00389519
0.00390167
0.00392771
0.00398199
0.00406002
0.00415894
0.0042943
0.00439264
0.00454675
0.00465984
0.00479642
0.00495356
0.00533253
0.00467903
0.00435856
0.00417982
0.00407829
0.0040143
0.00397594
0.00393755
0.00392256
0.00390567
0.00389883
0.00389321
0.00390326
0.00393598
0.00400851
0.00410875
0.00423829
0.00439748
0.00450958
0.00468436
0.00481865
0.00497468
0.00513559
0.0052778
0.00462045
0.00431442
0.0041438
0.00405168
0.00399422
0.0039579
0.00392678
0.00391451
0.00389914
0.00389598
0.00389198
0.00390567
0.00396064
0.00405457
0.00418213
0.00433697
0.00451537
0.00464338
0.00483887
0.00497645
0.00515198
0.00532039
0.00523251
0.00458824
0.00428905
0.00412772
0.0040403
0.0039856
0.00394938
0.00391981
0.00390686
0.00389552
0.00389131
0.00388867
0.00390913
0.00398788
0.00411524
0.00427492
0.00445364
0.0046479
0.00478675
0.00499909
0.005153
0.00533151
0.00549598
0.0051806
0.00454516
0.00425664
0.0040965
0.0040191
0.0039692
0.00393507
0.00390573
0.00389706
0.0038915
0.00388522
0.00388754
0.00391572
0.00403057
0.00419376
0.0043853
0.00458129
0.0047897
0.00494204
0.00516119
0.00531464
0.00550313
0.0056685
0.00513716
0.00450644
0.00422711
0.00408215
0.00400963
0.00396183
0.00392849
0.00389931
0.00389174
0.00388347
0.00388788
0.00389493
0.00394336
0.00408851
0.00429007
0.00450977
0.00472208
0.00493923
0.00509934
0.00532605
0.00548626
0.00566659
0.00582428
0.00509026
0.00447682
0.0042001
0.00405537
0.00399144
0.00394761
0.00391671
0.0038872
0.00388361
0.0038811
0.00390526
0.00392702
0.00399991
0.00416882
0.00440278
0.00464534
0.00486704
0.00509202
0.0052594
0.0054818
0.00564043
0.00581874
0.00597129
0.00505217
0.0044387
0.00417554
0.00404317
0.00398301
0.00394096
0.00391115
0.00388202
0.00387397
0.00389841
0.00395603
0.00399154
0.0040784
0.00426954
0.00453177
0.00478902
0.00501886
0.00524496
0.00541623
0.00563722
0.00579416
0.00596159
0.00610379
0.00501114
0.0044124
0.00414763
0.00402029
0.0039668
0.00392804
0.00390143
0.00387081
0.0038712
0.00392753
0.00401404
0.00406902
0.00417657
0.00438782
0.00467155
0.00493784
0.00516918
0.00539632
0.00556728
0.0057799
0.00593198
0.00609065
0.00622451
0.00497961
0.00437903
0.00412626
0.00400987
0.00395912
0.00392174
0.00389653
0.00387625
0.00389274
0.00399507
0.00409633
0.00416668
0.00429099
0.00452268
0.00482112
0.00508818
0.00531979
0.00554103
0.0057123
0.00591751
0.00606355
0.00621077
0.00633411
0.00494527
0.00435444
0.00410378
0.00399004
0.00394417
0.00390992
0.00388615
0.00387046
0.00392455
0.0040563
0.00417892
0.00427128
0.00441897
0.00466497
0.0049728
0.00523781
0.00546441
0.0056809
0.00584518
0.00604091
0.00618234
0.00632125
0.0064354
0.00491939
0.00432442
0.00407769
0.00398001
0.00393698
0.00390481
0.00389243
0.00390426
0.00400785
0.00415219
0.0042856
0.00439234
0.00455572
0.00481467
0.00512734
0.00538315
0.00560409
0.00580973
0.00597312
0.00615652
0.00629169
0.00641988
0.00652365
0.00489135
0.00430141
0.00406081
0.00396467
0.00392289
0.00389096
0.00388825
0.00394182
0.00406794
0.00424049
0.00438654
0.00451267
0.00469697
0.00496029
0.00527443
0.00552264
0.00573346
0.00593048
0.00608284
0.0062587
0.00639407
0.0065157
0.00661324
0.00486992
0.00427385
0.00403504
0.00395022
0.00391643
0.00389479
0.0039242
0.00403916
0.00418624
0.00435839
0.00451072
0.0046463
0.00483995
0.00510688
0.0054217
0.00565482
0.00585703
0.00604042
0.00619177
0.00635272
0.00648285
0.00659982
0.00668537
0.00484693
0.00425253
0.0040166
0.00394184
0.00390169
0.00389422
0.00397796
0.00411514
0.00426992
0.00446487
0.00462226
0.00477167
0.00497916
0.00524095
0.00555307
0.00577663
0.00596434
0.00613795
0.00627898
0.00643598
0.00656473
0.00668254
0.00677067
0.00483
0.00422915
0.00399474
0.0039304
0.00390023
0.00392182
0.00407577
0.00424033
0.00441705
0.00461039
0.0047671
0.00491865
0.00512551
0.00538078
0.00568849
0.00589315
0.00607003
0.00622893
0.00636781
0.00651186
0.00664109
0.00675464
0.00683522
0.00481884
0.0042151
0.00398192
0.00392029
0.00391384
0.0039826
0.00417234
0.00435193
0.00453867
0.00473475
0.00488764
0.00504416
0.00525477
0.00550135
0.00580357
0.00599636
0.00615739
0.00630806
0.00644244
0.00658588
0.00671191
0.00682673
0.00691079
0.00480496
0.00419279
0.00396665
0.00392286
0.00396395
0.00407668
0.00427375
0.00446384
0.00465954
0.00485058
0.00500444
0.00516284
0.00537178
0.00561442
0.00591301
0.00609162
0.00624293
0.0063821
0.00651182
0.00664388
0.00677592
0.00688686
0.00696469
0.00479197
0.00418023
0.00396002
0.00395169
0.00404513
0.00417445
0.00437939
0.00457786
0.00477874
0.0049682
0.00511566
0.00527408
0.00548038
0.00571502
0.0060068
0.00617134
0.00630757
0.00643962
0.00656925
0.00670533
0.00683447
0.00694529
0.00702572
0.00477851
0.00415963
0.00395024
0.00401623
0.00413375
0.00428716
0.00449154
0.00468999
0.00489256
0.00507499
0.00521997
0.00537623
0.0055772
0.00580823
0.00609476
0.00624802
0.00637336
0.00649818
0.00662282
0.0067479
0.00688461
0.00699109
0.00706673
0.00476407
0.00414745
0.0039583
0.00408971
0.00423537
0.00439936
0.00459785
0.00480059
0.00500165
0.0051776
0.0053165
0.00546936
0.00566504
0.00589021
0.00616687
0.00630613
0.00641945
0.00653906
0.00666463
0.00679838
0.00693411
0.00703726
0.00711481
0.00474837
0.00413426
0.00399238
0.00417795
0.00433914
0.00451503
0.00471215
0.00490773
0.00510185
0.00527102
0.0054043
0.00555255
0.00574119
0.0059645
0.00623364
0.00636553
0.00646781
0.00658344
0.00670551
0.00683045
0.00697197
0.00707317
0.00715237
0.00473271
0.00411906
0.0040516
0.00426789
0.00444618
0.00462907
0.0048124
0.00500574
0.00519391
0.00535564
0.00548358
0.00562731
0.00581102
0.0060309
0.00628704
0.006407
0.00649917
0.00661266
0.00673661
0.00687244
0.00701404
0.00710686
0.00718221
0.00471847
0.00412579
0.00412282
0.00436322
0.00455379
0.00474064
0.00491965
0.00510337
0.00527901
0.00543105
0.00555392
0.00569244
0.00586972
0.00608917
0.00633593
0.00645045
0.00653464
0.0066466
0.00676792
0.00689692
0.00704236
0.00713378
0.00722341
0.00469975
0.00413437
0.00420135
0.00446007
0.00466016
0.004843
0.00500758
0.0051834
0.0053512
0.00550019
0.00561584
0.00575062
0.005924
0.00614298
0.00637616
0.00648214
0.00655534
0.00666689
0.00679073
0.00693271
0.00707657
0.00716322
0.00725074
0.00468414
0.00417933
0.00428558
0.00455689
0.0047595
0.00494418
0.00510238
0.00526559
0.00541874
0.00555659
0.00566983
0.00580051
0.00597014
0.0061897
0.00641062
0.00651052
0.00658165
0.00669475
0.00681886
0.00695473
0.00709873
0.00718268
0.0072905
0.00467494
0.00423101
0.00436916
0.00465242
0.00486216
0.0050312
0.00517473
0.00533083
0.0054764
0.00560965
0.00571634
0.00584481
0.00601169
0.00623335
0.00644273
0.00653836
0.00659734
0.00670963
0.00683501
0.00698175
0.00712897
0.00721411
0.00732374
0.00465691
0.00429973
0.00446003
0.00474675
0.00494551
0.00511364
0.00525431
0.0053952
0.00552589
0.0056533
0.0057563
0.00588275
0.00604904
0.00627305
0.00646736
0.00655561
0.00661616
0.00673363
0.00686387
0.00701157
0.00715084
0.00724059
0.00736853
0.00464051
0.00437381
0.00454692
0.00483551
0.0050375
0.00518744
0.00531722
0.00544652
0.00556981
0.00569009
0.00579031
0.00591615
0.00608135
0.00630919
0.00649424
0.00657959
0.00663389
0.00674996
0.00688019
0.00703123
0.00717911
0.0072714
0.00740188
0.00464238
0.00445542
0.00463669
0.0049216
0.00510924
0.00525007
0.00537514
0.00549709
0.00560854
0.00572152
0.00581959
0.00594511
0.00611315
0.00634544
0.00651457
0.00659231
0.00664741
0.00676861
0.00691214
0.00707275
0.00721944
0.00731896
0.00745735
0.00466144
0.00454406
0.00472783
0.00500196
0.00518167
0.00531175
0.00543428
0.00553795
0.00563919
0.00574817
0.00584429
0.00597045
0.00613886
0.00637691
0.0065377
0.00661209
0.00667107
0.00679604
0.00694265
0.00710331
0.00725204
0.00735829
0.00751211
0.00469617
0.00463229
0.00481369
0.00507569
0.00524578
0.0053599
0.00548088
0.00557548
0.00566862
0.00576869
0.00586621
0.0059928
0.00616827
0.00641211
0.00655913
0.00662708
0.00668621
0.00681515
0.00697018
0.00715054
0.00731821
0.00744252
0.00760763
0.00473305
0.00472709
0.00490043
0.00514666
0.00530284
0.00540867
0.00551775
0.00560398
0.00568868
0.00578489
0.00588462
0.00601268
0.00619046
0.00644297
0.00658087
0.00664683
0.00671641
0.00685429
0.00703762
0.00723083
0.00740516
0.00753975
0.00773522
0.00478243
0.00481581
0.00498222
0.00520675
0.00535338
0.00544988
0.00556438
0.00563547
0.00571088
0.00579668
0.00590206
0.00603026
0.00621848
0.00647658
0.00660742
0.00667199
0.0067446
0.00689427
0.00708498
0.00729395
0.00748971
0.00768875
0.00802379
0.00482553
0.00490339
0.00505794
0.00526701
0.00539919
0.00548471
0.0055904
0.00565295
0.00572628
0.0058067
0.00591639
0.00604651
0.0062418
0.00651278
0.0066326
0.00669877
0.00678258
0.00694015
0.00717472
0.00742185
0.00772461
0.00811183
0.00864838
0.00488225
0.00498477
0.00513037
0.00531495
0.00543756
0.00551859
0.00560451
0.0056685
0.00572533
0.005817
0.00593131
0.00606135
0.00626834
0.0065441
0.0066657
0.0067363
0.00684423
0.00703647
0.00728686
0.00763122
0.008035
0.00853375
0.00944512
0.00492311
0.00505644
0.00519377
0.0053621
0.00547023
0.00554461
0.0056102
0.00566803
0.00572626
0.00582668
0.00594276
0.00607483
0.00629562
0.00658883
0.00670042
0.00677997
0.00689833
0.00710595
0.00743885
0.00782521
0.00833375
0.00916507
0.0109211
0.00498221
0.00512259
0.00525332
0.00539999
0.00549336
0.00556822
0.00562426
0.00567612
0.0057281
0.00583722
0.00595589
0.006089
0.00632404
0.0066207
0.00674018
0.00683326
0.00699067
0.00724621
0.00763145
0.00814957
0.00902934
0.0106941
0.0149797
0.00501712
0.00517562
0.00530352
0.00543428
0.00551379
0.00558456
0.00562807
0.00568837
0.00573297
0.00584566
0.00596544
0.00610009
0.00635196
0.00667276
0.00678961
0.00689515
0.0070762
0.00739474
0.00785728
0.00862346
0.0100072
0.0128909
0.0205804
0.0050732
0.00522138
0.00534936
0.00546441
0.00553029
0.00560056
0.00563946
0.00569981
0.00574762
0.00585519
0.00597702
0.00611566
0.00639104
0.00671236
0.00683589
0.00697055
0.00719929
0.00755494
0.00822379
0.00930587
0.0116121
0.0169209
0.0299155
0.00510756
0.00525782
0.00538976
0.00549055
0.00554883
0.00561559
0.00564972
0.00570997
0.00575619
0.00586229
0.0059855
0.0061248
0.00641417
0.0067652
0.00690114
0.00705233
0.00733345
0.00784585
0.00871399
0.0103313
0.0145302
0.0241853
0.0484313
0.00515818
0.00529455
0.0054286
0.00551753
0.00556588
0.00562983
0.00566209
0.00572052
0.00576622
0.00587176
0.00599696
0.00614282
0.00646494
0.0068268
0.00696431
0.00714969
0.0074829
0.00808293
0.00923823
0.0119817
0.0204338
0.0431987
0.0786191
0.00519974
0.00532464
0.00546047
0.00554052
0.0055852
0.00564432
0.00567023
0.00572986
0.00577783
0.00587924
0.00600458
0.006152
0.00649209
0.00687487
0.00702895
0.00723823
0.00763908
0.00835145
0.00992642
0.0146218
0.0295345
0.0590437
0.103053
0.00524493
0.005356
0.00549208
0.00556388
0.00560303
0.00565778
0.00568547
0.00574144
0.00578948
0.00588834
0.00601457
0.00616761
0.00653597
0.00693802
0.00710033
0.00734022
0.00779787
0.00870644
0.0113003
0.019842
0.0431284
0.0834738
0.126532
0.00528667
0.00538239
0.00551741
0.00558512
0.00562342
0.00567248
0.00569957
0.00575414
0.00579787
0.00589583
0.0060209
0.00617682
0.00656795
0.00698934
0.00715902
0.00741503
0.00791591
0.00910825
0.0125357
0.0225939
0.0490134
0.0933605
0.142403
0.00532949
0.00541176
0.00554321
0.00560669
0.00564262
0.00568737
0.00571755
0.00576814
0.00580784
0.00590447
0.00602891
0.00618967
0.00660632
0.0070407
0.00721565
0.00749572
0.00809874
0.00950184
0.0137815
0.0267282
0.0584482
0.107761
0.149753
0.00536863
0.00544006
0.00556682
0.00562731
0.00566407
0.00570321
0.00573358
0.00578279
0.00581807
0.00591176
0.00603413
0.00619739
0.00663655
0.0070847
0.00726059
0.00755469
0.00819307
0.00984582
0.0151107
0.0304532
0.0650252
0.111784
0.159161
0.00540964
0.00546933
0.00558954
0.00564833
0.00568433
0.00571909
0.00575136
0.00579718
0.00582993
0.00591999
0.00604072
0.00620745
0.00666857
0.00712826
0.00730558
0.00761223
0.00832624
0.010291
0.0159927
0.0310202
0.0649459
0.11256
0.164013
0.00544375
0.00549714
0.00561205
0.0056667
0.00570411
0.00573485
0.00576593
0.0058103
0.00584079
0.0059261
0.00604459
0.00621262
0.0066898
0.00715999
0.00732837
0.00763799
0.00839247
0.0103613
0.0157267
0.0287783
0.0591085
0.104219
0.159505
0.00547822
0.00552268
0.00563194
0.00568508
0.00572251
0.00574987
0.00578117
0.00582263
0.00585147
0.00593303
0.006048
0.00621742
0.00671216
0.00718397
0.00735052
0.0076619
0.0084225
0.0103707
0.0149344
0.0258529
0.0517384
0.092596
0.151711
0.00550789
0.00554939
0.00565463
0.00570274
0.00574151
0.00576587
0.00579533
0.00583532
0.00586216
0.00593868
0.00605152
0.00622081
0.00672705
0.00720794
0.00736935
0.00767221
0.00842798
0.0103039
0.0139598
0.022755
0.0440267
0.0798556
0.14026
0.00553983
0.00557552
0.00567567
0.00572042
0.0057603
0.00578225
0.00580994
0.00584767
0.00587283
0.00594587
0.0060542
0.00622487
0.00674399
0.00723124
0.00737025
0.00767322
0.00842536
0.0101103
0.0129385
0.0198105
0.036695
0.0670025
0.12519
0.00556785
0.00560184
0.00569796
0.00573931
0.00577879
0.00579758
0.00582473
0.00585996
0.00588281
0.00595122
0.00605647
0.006225
0.00675971
0.00723443
0.00737158
0.00766596
0.00837669
0.00981825
0.0119426
0.0171587
0.0301639
0.0548835
0.107409
0.00559711
0.00562942
0.005721
0.00575629
0.00579746
0.00581478
0.0058388
0.00587236
0.00589332
0.00595822
0.00605614
0.00622548
0.00676556
0.00723765
0.00737109
0.00764194
0.00827404
0.00950017
0.0110787
0.0149537
0.0246852
0.0441198
0.0884758
0.00562362
0.00565557
0.00574117
0.0057755
0.00581493
0.0058296
0.00585345
0.00588446
0.00590336
0.00596363
0.0060563
0.00622611
0.00676936
0.00723925
0.00734687
0.0075979
0.00815331
0.00916651
0.0102944
0.0131253
0.0202518
0.0350362
0.0702282
0.00564979
0.00568207
0.00576475
0.00579318
0.00583249
0.00584541
0.00586843
0.00589567
0.00591298
0.00596984
0.00605648
0.0062262
0.00676771
0.0072296
0.00731879
0.00753851
0.00801335
0.00884754
0.00967569
0.0116923
0.0168027
0.0277048
0.0540167
0.00567708
0.00570978
0.00578417
0.00581191
0.00584954
0.00586168
0.0058817
0.00590866
0.00592371
0.00597572
0.00605696
0.00622629
0.00676772
0.00720447
0.00727375
0.00747567
0.0078724
0.00854504
0.00914456
0.0106027
0.0142314
0.0220619
0.0407033
0.00569798
0.00573284
0.00580475
0.00582848
0.00586408
0.00587427
0.00589598
0.0059176
0.005933
0.00598077
0.006057
0.00622626
0.00676078
0.00716373
0.00722588
0.00740896
0.00772671
0.00828399
0.00872896
0.0097594
0.0123365
0.0179035
0.0305432
0.00572532
0.0057586
0.00582352
0.00584736
0.00588073
0.00589141
0.00591034
0.00593079
0.00594251
0.00598722
0.00605709
0.00622805
0.00674268
0.0071238
0.00717933
0.00733536
0.00760232
0.00804926
0.00839847
0.00917862
0.0110157
0.0149467
0.0232984
0.00574612
0.00578282
0.00584272
0.00586331
0.00589362
0.00590325
0.00592056
0.00593868
0.0059532
0.00599146
0.00605705
0.00622703
0.00671678
0.0070767
0.00712992
0.00727282
0.00748285
0.00785362
0.00813552
0.00872324
0.010092
0.0129166
0.0183623
0.00576426
0.00579934
0.00585653
0.00587641
0.00590619
0.00591532
0.00593352
0.00594918
0.00596027
0.00599809
0.00605699
0.00622666
0.00668796
0.00702906
0.00708369
0.00721377
0.00737471
0.00769831
0.0079428
0.00842097
0.00947802
0.0115779
0.0150954
0.00578942
0.00582328
0.00587279
0.00589347
0.00591861
0.0059304
0.00594364
0.00595809
0.00596984
0.00599853
0.00605721
0.00622645
0.00665658
0.00698188
0.00704673
0.00715959
0.00729231
0.00755323
0.00779435
0.00825008
0.00910007
0.0107374
0.0130021
0.00579875
0.00583833
0.00588609
0.00590504
0.00592996
0.00593605
0.00594976
0.00596461
0.00597757
0.00599951
0.00605693
0.00622731
0.00662566
0.00694565
0.00702306
0.00712726
0.00724156
0.00746916
0.00769975
0.00815276
0.00882976
0.010213
0.0116966
0.00580318
0.00584444
0.00589309
0.00590425
0.00593046
0.00593769
0.00595366
0.00596427
0.00598319
0.0060016
0.0060567
0.0062269
0.00659719
0.00691534
0.00700923
0.0071122
0.0071996
0.00742968
0.00764713
0.00807661
0.00875583
0.00990592
0.010908
0.00580798
0.00585138
0.00589821
0.00590462
0.00593179
0.00594145
0.00595723
0.00596472
0.00598259
0.00600367
0.00605583
0.00622477
0.00657204
0.0068896
0.00700143
0.00710382
0.00717702
0.00739925
0.00761117
0.00801521
0.00876496
0.0097325
0.0104336
0.00581001
0.00585713
0.00589503
0.00590626
0.00593831
0.00594608
0.0059556
0.00596789
0.00598542
0.0060031
0.00605597
0.0062223
0.00655094
0.00687303
0.00699581
0.00708801
0.00716714
0.00737953
0.0076053
0.00798531
0.00874487
0.00964318
0.0101712
0.00581177
0.00585392
0.00589618
0.00590936
0.00593677
0.00594726
0.00595742
0.00596591
0.0059834
0.00600469
0.00605355
0.00621907
0.0065345
0.00686134
0.00699076
0.00707411
0.00715637
0.0073551
0.0075842
0.00794886
0.00876441
0.00964933
0.0100302
0.0058088
0.00585543
0.00589714
0.00590831
0.00593907
0.00594704
0.00595471
0.00596776
0.00598413
0.00600237
0.00605296
0.00621627
0.00652231
0.0068523
0.00698776
0.00706427
0.00715722
0.00733893
0.00756258
0.00791141
0.00880159
0.00966063
0.00997526
0.00580929
0.0058565
0.0058926
0.00590764
0.00593582
0.00594996
0.00595523
0.00596934
0.00598626
0.00600205
0.00605301
0.006213
0.00651387
0.00684656
0.00698333
0.00705597
0.00714803
0.00732855
0.00754989
0.0078847
0.0088125
0.00966967
0.0099744
0.0058087
0.00585266
0.00589254
0.00590932
0.00593556
0.00594673
0.00595491
0.00596642
0.00598668
0.00600166
0.00605028
0.00621041
0.00650812
0.00684099
0.00697931
0.00705202
0.00714254
0.00732071
0.00753715
0.0078814
0.00879991
0.00975426
0.00996558
0.00580892
0.00585086
0.00589461
0.00590851
0.00593669
0.00594697
0.0059551
0.0059669
0.0059865
0.00600151
0.00604992
0.00620729
0.00650442
0.00683641
0.00697502
0.00704874
0.00714132
0.00731464
0.0075303
0.00787764
0.00884664
0.00976081
0.00998642
0.00580829
0.0058498
0.00588986
0.00591076
0.00593258
0.00595023
0.00595669
0.00596669
0.00598669
0.00600132
0.00605011
0.00620504
0.00650176
0.00683311
0.0069726
0.00704914
0.00713578
0.00731082
0.00751991
0.00786966
0.00888273
0.00977821
0.0100033
0.00580779
0.00584845
0.00588978
0.00590634
0.00593185
0.00594714
0.00595314
0.00597103
0.00598334
0.00600123
0.00605016
0.00620192
0.00649869
0.00683048
0.00696953
0.00704814
0.00712924
0.00730537
0.00751323
0.0078598
0.00890266
0.00978074
0.0100512
0.00580613
0.00584754
0.00589288
0.00590579
0.00593241
0.00594831
0.00595261
0.00596826
0.00598333
0.00600224
0.00604774
0.00619997
0.00649597
0.006829
0.00696657
0.0070487
0.00712571
0.00729949
0.00750144
0.00786568
0.00887613
0.00978568
0.010093
0.00580525
0.00585193
0.00589356
0.00590852
0.00592744
0.00594381
0.00595335
0.0059682
0.0059823
0.00599874
0.00604846
0.00619668
0.0064924
0.00682617
0.00697023
0.00704842
0.0071229
0.00729892
0.00749482
0.00785683
0.00890055
0.00978299
0.0100719
0.00580195
0.0058456
0.00589217
0.00590772
0.00592636
0.00594727
0.00594911
0.00596689
0.00598148
0.00600117
0.00604866
0.00619469
0.00649094
0.00682067
0.00697633
0.00704812
0.00712472
0.00729664
0.00748932
0.00787054
0.00892192
0.00973303
0.0100837
0.00580087
0.0058457
0.00589098
0.00590783
0.00592389
0.00594343
0.00594863
0.0059661
0.0059855
0.00599812
0.0060447
0.00619098
0.00648518
0.0068195
0.00698759
0.00705341
0.00712753
0.0072931
0.0074869
0.00786852
0.0088557
0.00972048
0.010056
0.00579819
0.00585028
0.00588561
0.00590464
0.00592355
0.00594379
0.00594905
0.00596807
0.00598223
0.0059986
0.00604376
0.00618853
0.00648447
0.00681959
0.00699599
0.00706287
0.00713698
0.00729146
0.0074892
0.007873
0.00889401
0.00971556
0.00999179
0.00579765
0.00584873
0.00588434
0.00590225
0.00592179
0.00594384
0.00594909
0.00596824
0.00598472
0.00599802
0.00604302
0.00618389
0.00648228
0.00681468
0.00701018
0.0070756
0.00715303
0.00730109
0.00749023
0.00789397
0.00892672
0.00963736
0.00986198
0.00580146
0.00584527
0.00587971
0.00590191
0.00592136
0.00593825
0.00594342
0.00596553
0.00598471
0.00599731
0.00604192
0.00618071
0.00648691
0.00681694
0.00701117
0.00708719
0.00716565
0.00730897
0.00749609
0.00786511
0.00900015
0.00954931
0.00973432
0.00580369
0.00583511
0.00587555
0.00589432
0.00592371
0.00593791
0.00594668
0.00596433
0.00598238
0.00599643
0.00603975
0.00617471
0.0064812
0.00681088
0.00701344
0.00710688
0.00718508
0.00731766
0.00751408
0.00794647
0.00893707
0.00943262
0.00959952
0.00579925
0.00583263
0.00587275
0.00589841
0.00592511
0.0059314
0.00594166
0.00596069
0.00598038
0.00599446
0.00603792
0.00617089
0.0064842
0.00681077
0.00702093
0.00712208
0.00719413
0.00732989
0.00753037
0.00794212
0.00896784
0.00933855
0.00946257
0.00579567
0.00582772
0.00586506
0.00589157
0.00592218
0.00593023
0.00594201
0.00595891
0.00597644
0.0059932
0.00603787
0.00616366
0.00648401
0.00681289
0.00702809
0.00714012
0.00721682
0.00732917
0.00753815
0.00800423
0.00896758
0.00925293
0.00935379
0.00579187
0.00582459
0.00586336
0.00589266
0.00591838
0.00593176
0.00593901
0.00595794
0.00597279
0.00598943
0.00603215
0.00615953
0.00648134
0.00681506
0.00702319
0.00715131
0.00721979
0.0073437
0.00753503
0.00796108
0.00894678
0.00921566
0.00927531
0.00578176
0.00582125
0.00585326
0.00588965
0.00591408
0.00593253
0.0059374
0.00595113
0.00596976
0.00598776
0.00603514
0.00615158
0.00647518
0.00680693
0.00702245
0.00716993
0.00723556
0.00735999
0.00754928
0.0080629
0.0089033
0.00917453
0.00922812
0.00577883
0.00582011
0.00585243
0.0058864
0.00591128
0.00593039
0.00593636
0.00594969
0.00596271
0.00598118
0.00603035
0.00614766
0.00647142
0.00681586
0.00702644
0.00717126
0.00725469
0.00736098
0.00756168
0.00809344
0.00887675
0.00915259
0.00918642
0.00576354
0.00582615
0.00585328
0.00588348
0.00590387
0.00592708
0.00592839
0.00594966
0.00596113
0.00598031
0.00603281
0.00613877
0.00645974
0.00680984
0.00702463
0.00717323
0.00726799
0.00736473
0.00758071
0.0081327
0.00880749
0.00911184
0.00917257
0.00576074
0.00582522
0.00585633
0.00587232
0.00589361
0.00592239
0.00592717
0.00595142
0.00596236
0.00598222
0.00603362
0.00613701
0.00646331
0.00681329
0.00702857
0.00717605
0.00726456
0.00737967
0.00757007
0.00826492
0.0087988
0.00909317
0.00915741
0.00576241
0.0058204
0.00585353
0.00586974
0.00589102
0.00591134
0.00592955
0.00594855
0.00596264
0.0059822
0.00602923
0.00612695
0.00643769
0.00681553
0.00702458
0.00717801
0.00726674
0.00738591
0.00756674
0.00814838
0.00874753
0.009073
0.00914959
0.00576443
0.00581139
0.00584807
0.0058734
0.00589275
0.00590735
0.00592824
0.00594364
0.00595749
0.00597776
0.006023
0.00611638
0.0064071
0.0068101
0.00700417
0.00716016
0.00726499
0.00736328
0.00759191
0.00814582
0.00871284
0.00906712
0.00914802
0.00575672
0.00579521
0.00583381
0.00587096
0.00589035
0.00590766
0.00592229
0.00593812
0.00594999
0.00597091
0.00601422
0.00610405
0.00637277
0.00679702
0.00699808
0.00715498
0.00726539
0.00737255
0.00757992
0.00817905
0.00872103
0.00900717
0.00913444
0.0057478
0.00577272
0.00581264
0.00586405
0.00588442
0.0058974
0.00591449
0.00593127
0.00594298
0.00596326
0.00600048
0.00609052
0.00633665
0.00677077
0.00697703
0.00714925
0.0072607
0.00736652
0.00754978
0.00810847
0.00866579
0.0089226
0.00906592
0.00573124
0.00576555
0.0058057
0.00585502
0.0058734
0.00588779
0.00590484
0.00592206
0.00593624
0.00595506
0.00598138
0.00607615
0.00629715
0.00673749
0.00696043
0.00714918
0.0072671
0.00735525
0.00753965
0.00799695
0.00855919
0.0088652
0.00901843
0.0057211
0.00576994
0.00580795
0.00584376
0.00585724
0.00587425
0.00589475
0.00591164
0.00592769
0.00594668
0.00597389
0.00606247
0.00625563
0.00668846
0.00690935
0.00713721
0.00725205
0.00735226
0.00747785
0.00790333
0.00844839
0.00876015
0.00896291
0.00570026
0.00576155
0.00579994
0.00582899
0.00584032
0.00585577
0.00588166
0.00589906
0.00591391
0.00593269
0.00597281
0.00604639
0.0062126
0.00661089
0.00689108
0.00711521
0.00722887
0.00736719
0.00747072
0.00785031
0.00837584
0.0087053
0.00886066
0.00566873
0.00574657
0.00578521
0.00581226
0.00582777
0.00584067
0.0058636
0.00588408
0.00589849
0.00591738
0.00596062
0.00602751
0.00617028
0.00652074
0.00688227
0.00708588
0.00721476
0.0073236
0.0074703
0.0077955
0.00823985
0.00853439
0.00886054
0.00566192
0.00572476
0.00576413
0.00579089
0.00580665
0.00583065
0.00584526
0.00586574
0.00588118
0.00589677
0.00594054
0.00600398
0.00612693
0.00641665
0.00681691
0.00705472
0.00718799
0.00733987
0.00750096
0.0076876
0.00814985
0.00851262
0.00888174
0.00563885
0.00569914
0.00573967
0.00576728
0.00577767
0.00581048
0.00582757
0.00584543
0.00586282
0.00587666
0.00591809
0.00597806
0.00608412
0.00631675
0.00670776
0.00700583
0.00715165
0.00730274
0.00745669
0.00766764
0.00808227
0.00855671
0.00896827
0.00560501
0.00566692
0.00570742
0.00573731
0.00574957
0.0057841
0.00580327
0.00581986
0.00583899
0.00585373
0.00589173
0.00594693
0.00603849
0.00622429
0.00657835
0.00688712
0.00709712
0.00729968
0.00738237
0.00765834
0.00794444
0.00838251
0.00889119
0.00556585
0.00563161
0.00567209
0.00570508
0.00571273
0.00575325
0.00577648
0.00579187
0.00581172
0.00582875
0.00586359
0.00591366
0.00599231
0.0061393
0.00644498
0.00674464
0.00699138
0.00724189
0.00737169
0.00763146
0.00792232
0.00843297
0.00885624
0.00551904
0.00558826
0.0056291
0.00566559
0.00567294
0.00571442
0.0057401
0.0057559
0.0057766
0.00579511
0.00582785
0.00587228
0.00594084
0.00605735
0.00628842
0.00660302
0.00682644
0.0071225
0.00736066
0.00756749
0.00793992
0.00837849
0.00884156
0.0054717
0.00554177
0.00558285
0.00562337
0.00563547
0.00567446
0.00570113
0.00571728
0.00573734
0.00575754
0.00578807
0.0058288
0.00588704
0.00598111
0.00614862
0.00643523
0.00666823
0.00689582
0.00720787
0.00747854
0.0078149
0.00836824
0.00885285
0.00541635
0.0054853
0.00552634
0.00557032
0.00558935
0.00562371
0.00565038
0.00566745
0.00568847
0.00570846
0.00573742
0.00577357
0.00582445
0.00589916
0.00602231
0.00625474
0.00648194
0.00667084
0.0069003
0.00729318
0.00763135
0.00809194
0.00868835
0.00535869
0.0054257
0.00546666
0.00551432
0.00553912
0.00557062
0.00559694
0.00561507
0.00563494
0.00565607
0.00568287
0.00571724
0.00576107
0.0058214
0.00591218
0.00607724
0.00630385
0.00646936
0.00663841
0.00691624
0.00732118
0.00781536
0.00834869
0.00528804
0.00535333
0.00539303
0.0054437
0.00547275
0.00550164
0.00552811
0.00554731
0.00556865
0.00558831
0.00561377
0.00564374
0.0056825
0.00573327
0.00579707
0.00590341
0.00609555
0.00626275
0.00639996
0.00660137
0.00688299
0.00740302
0.0079665
0.0052134
0.00527801
0.00531691
0.00537015
0.00540163
0.00543105
0.00545693
0.00547679
0.00549761
0.00551873
0.00554209
0.00557194
0.00560286
0.00564838
0.00569727
0.0057667
0.00589186
0.00606107
0.00618738
0.0063314
0.00652884
0.00684749
0.0074556
0.00512118
0.00518602
0.00522324
0.00527737
0.00531028
0.00533929
0.0053655
0.00538578
0.00540754
0.00542768
0.00544831
0.00547655
0.00550173
0.00554099
0.00557943
0.00562417
0.0056972
0.00582791
0.00595955
0.006076
0.00621423
0.00641871
0.00679249
0.00502602
0.00509158
0.00512939
0.00518364
0.00521729
0.00524768
0.00527337
0.00529311
0.00531482
0.00533723
0.00535592
0.00538339
0.00540471
0.00543617
0.00547329
0.00550545
0.0055478
0.00562001
0.00573535
0.00584677
0.00594946
0.0060749
0.00630034
0.00490853
0.00497489
0.00501331
0.00506506
0.00509835
0.00512837
0.00515462
0.00517367
0.00519385
0.00521645
0.0052322
0.00525786
0.00527808
0.00530073
0.00533099
0.00535975
0.00538711
0.00542558
0.00549309
0.00558777
0.00568575
0.00577152
0.00590396
0.00479167
0.00485806
0.00490075
0.00494901
0.00498254
0.00501249
0.00503851
0.00505744
0.00507657
0.00510103
0.00511663
0.00513776
0.00515926
0.00517733