/*--------------------------------*- C++ -*----------------------------------*\
  =========                 |
  \\      /  F ield         | OpenFOAM: The Open Source CFD Toolbox
   \\    /   O peration     | Website:  https://openfoam.org
    \\  /    A nd           | Version:  7
     \\/     M anipulation  |
\*---------------------------------------------------------------------------*/
FoamFile
{
    version     2.0;
    format      ascii;
    class       volScalarField;
    location    "50";
    object      nut;
}
// * * * * * * * * * * * * * * * * * * * * * * * * * * * * * * * * * * * * * //

dimensions      [0 2 -1 0 0 0 0];

internalField   nonuniform List<scalar> 
12842
(
0.00181016
0.00179474
0.00178942
0.00177106
0.00176934
0.00176071
0.00176448
0.00175805
0.00176121
0.00175722
0.00175856
0.00175756
0.00176117
0.00176482
0.00122501
0.000652671
0.00040402
0.000279722
0.000207165
0.000161169
0.00013007
0.00010916
9.31183e-05
0.00181167
0.00178582
0.00179405
0.00177953
0.00177474
0.00176183
0.00176491
0.00175911
0.00176215
0.00175726
0.00175884
0.00175672
0.00176113
0.00176447
0.00119273
0.000636181
0.00039422
0.000273543
0.000203096
0.000158592
0.000128394
0.000108667
9.24618e-05
0.00181187
0.00178946
0.0017801
0.00177292
0.00177843
0.00176219
0.00176384
0.00176052
0.00176367
0.00175665
0.00175905
0.00175497
0.00176091
0.00176418
0.00115533
0.000619723
0.000386278
0.000269371
0.000200873
0.000157519
0.000127882
0.000109253
9.25742e-05
0.00180863
0.00178967
0.00178133
0.00177244
0.00177715
0.00176126
0.00176572
0.00175744
0.00176397
0.00175785
0.00175952
0.00175471
0.00176059
0.00176432
0.0011103
0.000599335
0.000375729
0.000263414
0.000197187
0.000155517
0.000126659
0.000108984
9.31497e-05
0.00180682
0.00178922
0.00177974
0.00176685
0.0017776
0.00176188
0.00176101
0.0017571
0.001762
0.00175643
0.00175923
0.0017549
0.00176031
0.00176467
0.00106848
0.000580176
0.000366108
0.000258385
0.000194685
0.00015445
0.000126397
0.00010921
9.37578e-05
0.00180744
0.00178409
0.0017799
0.00177151
0.00177305
0.00176637
0.00176498
0.00175477
0.00176168
0.00175749
0.00175922
0.00175462
0.00175958
0.00176509
0.00103896
0.0005665
0.000359064
0.000254533
0.000192457
0.000153722
0.000126455
0.000110009
9.46253e-05
0.00180412
0.00178436
0.00177361
0.00176688
0.00177325
0.0017631
0.00176631
0.00175618
0.00175914
0.00175585
0.00175925
0.00175521
0.00175957
0.00176606
0.00101266
0.000553549
0.000353388
0.000252348
0.00019209
0.000154444
0.000127767
0.000111973
9.65017e-05
0.00180569
0.00178231
0.00177412
0.00176729
0.00176843
0.00176566
0.00176767
0.00175759
0.00176092
0.00175549
0.00175836
0.00175568
0.00175943
0.00176654
0.0010409
0.000566423
0.000360003
0.000256977
0.000195318
0.000157329
0.000130165
0.000114625
9.86508e-05
0.00180261
0.00178166
0.00176839
0.00176494
0.00176623
0.00176099
0.00176678
0.00175941
0.00176025
0.0017563
0.00175754
0.00175601
0.00175888
0.00176782
0.00105652
0.000574087
0.00036564
0.000262682
0.000199981
0.00016183
0.000133982
0.000118669
0.00010223
0.00180225
0.00178391
0.00177093
0.00176372
0.00176417
0.00176225
0.00176602
0.00175837
0.00176084
0.00175628
0.00175702
0.0017567
0.00176042
0.00177179
0.00101687
0.00055735
0.000359926
0.000261637
0.00020066
0.000163628
0.00013629
0.00012141
0.000104622
0.00180048
0.00177905
0.00176715
0.00176097
0.00176217
0.00175862
0.00176298
0.001758
0.00176034
0.00175564
0.00175706
0.00175764
0.00176261
0.00178322
0.00100879
0.000557757
0.000363565
0.000265909
0.000204669
0.000167531
0.000139461
0.000124621
0.000107456
0.00179862
0.0017819
0.0017673
0.00175998
0.00176195
0.00175973
0.00176152
0.00175695
0.00175889
0.00175559
0.00175644
0.00175786
0.00176549
0.00179626
0.00100305
0.000559786
0.000368166
0.000270511
0.000208558
0.000171154
0.000142808
0.000127562
0.000109983
0.00179808
0.00177946
0.00176627
0.00175825
0.00176026
0.00175762
0.00175971
0.00175466
0.00175702
0.00175574
0.00175516
0.00175905
0.00176985
0.00181588
0.000999293
0.000563958
0.000373594
0.000275392
0.000212729
0.000174673
0.000145643
0.000130189
0.000112454
0.00179541
0.00177855
0.00176343
0.00175751
0.00176054
0.00175783
0.00175914
0.00175399
0.00175612
0.00175338
0.00175831
0.0017643
0.00178367
0.00184203
0.00100008
0.000571769
0.000380672
0.000280853
0.000216978
0.000178254
0.000148749
0.000132558
0.000114651
0.0017962
0.00177815
0.00176155
0.00175661
0.00175892
0.00175636
0.0017587
0.00175312
0.00175548
0.00175519
0.00176851
0.00178045
0.00181053
0.00187696
0.00100861
0.000582764
0.000388184
0.000286355
0.000221241
0.000181481
0.000151401
0.000134633
0.000116782
0.00179355
0.00177529
0.0017603
0.00175661
0.00175864
0.00175581
0.00175884
0.00175342
0.00175309
0.00176493
0.00179415
0.00181146
0.00184589
0.001914
0.00102796
0.000596242
0.000396623
0.000291974
0.000225399
0.000184714
0.000154138
0.000136542
0.000118816
0.00179541
0.00177352
0.00175488
0.00175602
0.00175727
0.00175425
0.0017599
0.0017541
0.00175616
0.00178202
0.00182283
0.0018484
0.00188609
0.00194546
0.00105395
0.000612094
0.00040541
0.00029756
0.000229364
0.000187656
0.00015669
0.000138349
0.000120928
0.00179365
0.00177038
0.00175397
0.00175673
0.00175664
0.00175447
0.0017606
0.00175971
0.00176865
0.00181527
0.0018627
0.00189192
0.00192007
0.00197057
0.00109102
0.000630595
0.0004152
0.00030337
0.000233573
0.000190821
0.000159526
0.000140366
0.000123265
0.00179565
0.00176755
0.00174916
0.00175549
0.00175526
0.00175353
0.00176195
0.0017622
0.00178745
0.00184675
0.00190275
0.00193362
0.00194811
0.00198956
0.00113241
0.000650759
0.000425443
0.000309422
0.000237669
0.000194004
0.000162611
0.000142775
0.000125999
0.00179519
0.00176385
0.00174429
0.00175687
0.0017553
0.00175576
0.00176753
0.00177962
0.00182712
0.00189131
0.00194745
0.00196531
0.00196574
0.00199968
0.00118454
0.000673999
0.000436893
0.000315789
0.000242538
0.000197733
0.000166297
0.000145772
0.000129134
0.00179704
0.00176078
0.00174077
0.00175513
0.00175353
0.0017561
0.0017707
0.00180025
0.00185752
0.00193384
0.00198791
0.00198851
0.00197875
0.0020042
0.00123862
0.000697765
0.000448688
0.000322818
0.000247358
0.000201813
0.000170606
0.000149682
0.000133115
0.00179673
0.00175692
0.00173456
0.00175566
0.00175627
0.00176276
0.00178891
0.00184143
0.0019079
0.00197912
0.00201508
0.00199785
0.00198018
0.00200073
0.00129622
0.000723235
0.000461357
0.000329958
0.000253546
0.00020692
0.000176025
0.00015489
0.000137997
0.00179914
0.00175406
0.00172943
0.00175584
0.00175348
0.00176834
0.00181745
0.00186669
0.00193246
0.00200691
0.00203243
0.00200211
0.00198043
0.00199511
0.00139306
0.000760206
0.000478169
0.000339619
0.000260244
0.000212777
0.000182158
0.000161051
0.00014395
0.00179814
0.00174952
0.00172209
0.00175674
0.00175781
0.00178644
0.00186028
0.00189996
0.00197109
0.00203386
0.00203579
0.00199461
0.00197169
0.00198423
0.00149086
0.00079992
0.000496834
0.000349582
0.000268568
0.000219691
0.000189542
0.000168526
0.000151107
0.00180084
0.00174819
0.00171766
0.00175598
0.00176771
0.00181655
0.0018945
0.00191962
0.00198989
0.0020422
0.00203009
0.00198359
0.00196388
0.00197431
0.00153003
0.000820637
0.000510038
0.000359658
0.00027719
0.000228198
0.000198371
0.000177478
0.000159887
0.00180021
0.00174289
0.00171317
0.00176065
0.00179344
0.00185702
0.0019142
0.00193057
0.00199881
0.00203719
0.00201561
0.00196904
0.00195221
0.00196254
0.00159626
0.000850987
0.000526038
0.000369396
0.000286252
0.000236623
0.000207198
0.000186373
0.000168496
0.00180107
0.00174231
0.00171206
0.00177787
0.00182848
0.00188978
0.00192864
0.00193539
0.00199772
0.0020245
0.00199731
0.0019535
0.00194179
0.00195217
0.00166647
0.000879399
0.000541175
0.000380275
0.00029527
0.00024557
0.000216284
0.000195374
0.000177488
0.00180184
0.00173816
0.00171144
0.0018082
0.0018613
0.00191522
0.00193566
0.0019335
0.00199047
0.00200595
0.00197594
0.00193768
0.00192972
0.00194125
0.00174018
0.000911634
0.000558023
0.000390491
0.000304305
0.000254209
0.00022496
0.000204073
0.000186343
0.00180117
0.00173827
0.00171846
0.00183947
0.00188127
0.00193166
0.00193648
0.00192895
0.00197884
0.00198525
0.00195515
0.0019232
0.00192019
0.00193281
0.00181483
0.000940903
0.000572567
0.000401447
0.000313505
0.000263278
0.000234015
0.000212818
0.000195162
0.00180163
0.00173808
0.00173633
0.00186823
0.00190144
0.00194
0.00193397
0.00192083
0.00196349
0.00196359
0.00193509
0.00190972
0.00190956
0.00192409
0.00188726
0.000971643
0.000589345
0.000411495
0.000321843
0.000271321
0.000241881
0.000220558
0.000203647
0.00180058
0.00173769
0.00176694
0.00188823
0.00190652
0.00194234
0.00192516
0.00191101
0.00194835
0.00194289
0.00191741
0.00189844
0.00190244
0.00191848
0.00193295
0.00100283
0.000602866
0.000421615
0.000330562
0.000279863
0.000250007
0.000228167
0.000211368
0.00180187
0.00174541
0.00179917
0.00190331
0.00191639
0.00193743
0.00191749
0.00190191
0.0019316
0.0019227
0.00190194
0.00188826
0.00189416
0.00191222
0.00192905
0.00103213
0.000619315
0.000431463
0.000337909
0.000286646
0.000256491
0.000234533
0.000219257
0.00179898
0.00175442
0.00183046
0.00191259
0.00191705
0.00193026
0.00190477
0.00188999
0.00191632
0.00190655
0.00188877
0.00188027
0.00188925
0.00190936
0.00191998
0.00106528
0.000631906
0.000439762
0.0003452
0.000293705
0.000262965
0.000240957
0.000225959
0.00180072
0.00177905
0.00185553
0.00191553
0.00191798
0.00191925
0.00189632
0.00188113
0.00190188
0.00189047
0.00187811
0.00187327
0.00188376
0.00190538
0.001916
0.00109534
0.000647677
0.000449087
0.000351526
0.000299204
0.000267943
0.00024584
0.000232766
0.00180157
0.0018021
0.00187617
0.00191658
0.00191968
0.0019091
0.00188393
0.00187115
0.00188921
0.0018785
0.00186921
0.00186798
0.00188054
0.00190479
0.00191091
0.0011294
0.000659623
0.000455513
0.000356343
0.000303644
0.000272389
0.000251685
0.000238774
0.00180099
0.00182365
0.00189303
0.00191289
0.00191435
0.00189732
0.00187748
0.00186392
0.00187768
0.00186845
0.00186228
0.00186365
0.00187761
0.0019028
0.00190553
0.00116273
0.00067452
0.000463456
0.00036183
0.000308384
0.000276672
0.000255841
0.000243313
0.00180114
0.00184446
0.00190632
0.00191045
0.00191524
0.00188937
0.0018696
0.00185536
0.00186828
0.00185957
0.00185674
0.0018604
0.0018758
0.00190388
0.00190362
0.00119839
0.000686111
0.000468461
0.000364581
0.000310671
0.00027909
0.000259629
0.000246795
0.0018057
0.00185649
0.00191552
0.00190503
0.00190813
0.00187968
0.00186398
0.00185179
0.00186008
0.00185328
0.00185243
0.00185808
0.00187509
0.00190363
0.00189709
0.00123524
0.000699705
0.000474945
0.000368695
0.000313705
0.000282076
0.000263536
0.00025074
0.00181802
0.00187465
0.001924
0.00190243
0.00190597
0.00187546
0.00186175
0.00184533
0.00185274
0.00184816
0.00184925
0.00185632
0.00187432
0.00190564
0.00189627
0.00127428
0.000713159
0.000478831
0.000369809
0.000315194
0.000283792
0.000268026
0.00025714
0.00183762
0.00188027
0.00192725
0.00189644
0.00189847
0.00186865
0.00185921
0.00184137
0.00184671
0.00184392
0.00184632
0.00185531
0.00187561
0.00190696
0.00189014
0.00131485
0.000723622
0.000483822
0.000372718
0.000316021
0.000289381
0.000279375
0.000274015
0.00185254
0.00189224
0.00192905
0.0018948
0.00189519
0.00186535
0.00185438
0.00183747
0.00184003
0.00184017
0.00184463
0.00185471
0.00187579
0.00190948
0.00188782
0.00135861
0.000741885
0.000489672
0.000374223
0.000324237
0.00030196
0.000305085
0.000310245
0.00186386
0.0018931
0.00192728
0.00188731
0.00188646
0.00186087
0.00185519
0.0018331
0.00183621
0.00183657
0.00184276
0.00185439
0.00187842
0.00191138
0.00188327
0.0014065
0.000752739
0.000492659
0.00038179
0.00033103
0.000321589
0.000339286
0.000364465
0.00186606
0.00189612
0.00192215
0.00188419
0.00188013
0.00185587
0.00184977
0.00182827
0.00183248
0.00183412
0.00184206
0.00185456
0.00188021
0.00191503
0.00187835
0.00145177
0.000770837
0.000506457
0.00038705
0.000348393
0.000353534
0.000405226
0.000466583
0.0018689
0.00189307
0.0019143
0.0018756
0.00187103
0.00185094
0.00184239
0.0018306
0.00182582
0.00183271
0.0018415
0.00185466
0.0018832
0.00191594
0.00187498
0.00151463
0.000797261
0.000514791
0.00040188
0.000377495
0.000412986
0.000518418
0.000606488
0.00186461
0.00188979
0.00190485
0.00186961
0.00186204
0.0018456
0.00183201
0.00182526
0.00181995
0.00183264
0.00184136
0.00185515
0.00188707
0.00192153
0.00186787
0.00156463
0.00081304
0.000532519
0.000425887
0.000424785
0.000507324
0.000631025
0.000584153
0.00186696
0.00188237
0.00189394
0.00186129
0.00185205
0.00183948
0.00182719
0.00182257
0.00181899
0.00183283
0.00184188
0.00185569
0.00189043
0.00192018
0.00186288
0.00164015
0.000859706
0.000563828
0.00046541
0.000504638
0.000614662
0.000641394
0.000678279
0.00186123
0.00187579
0.00188472
0.00185353
0.00184433
0.00183465
0.00182037
0.00182547
0.00182021
0.00183336
0.00184235
0.00185615
0.00189533
0.00192805
0.00185641
0.00171079
0.000896596
0.000596072
0.000523205
0.000584196
0.000676295
0.000673055
0.000752258
0.00186439
0.00186529
0.00187354
0.00184756
0.0018364
0.00182889
0.00181875
0.00182633
0.00182251
0.00183364
0.00184308
0.00185735
0.00190079
0.00192449
0.00184351
0.00169625
0.000944626
0.000660504
0.000588079
0.000622506
0.000699174
0.000729452
0.000827826
0.00185942
0.00185698
0.00186626
0.00184228
0.0018317
0.00182654
0.0018169
0.00182548
0.00182209
0.00183355
0.00184387
0.00185759
0.00190462
0.0019319
0.00184133
0.00165797
0.00100874
0.000704828
0.00061069
0.000643715
0.000764677
0.000758354
0.000859783
0.00186056
0.00184765
0.0018577
0.00183779
0.00182725
0.00182279
0.00181676
0.00182422
0.00182215
0.00183368
0.00184456
0.00185928
0.00191302
0.00193226
0.00181873
0.00162748
0.0010697
0.000763838
0.000682942
0.000800814
0.000792951
0.000920532
0.00106192
0.00185756
0.00184146
0.00185255
0.00183542
0.00182643
0.00182214
0.00181564
0.00182323
0.00182295
0.00183323
0.00184498
0.00185967
0.00191712
0.00193537
0.00181548
0.00159527
0.00120992
0.000881438
0.000798901
0.000840986
0.000903737
0.000977989
0.00115103
0.00185867
0.00183655
0.00184934
0.001834
0.00182601
0.00182122
0.00181691
0.00182322
0.00182407
0.00183332
0.0018454
0.00186101
0.00192381
0.0019359
0.00179541
0.00154955
0.0012838
0.00101225
0.000921185
0.000912839
0.000999726
0.00113833
0.00129144
0.00185913
0.00183349
0.00184711
0.00183465
0.00182751
0.00182214
0.00181803
0.00182421
0.00182411
0.00183283
0.00184564
0.00186153
0.00192925
0.00193927
0.00178696
0.00152754
0.00124072
0.00101627
0.000906206
0.000882552
0.000992844
0.00114819
0.00133157
0.00186166
0.00183182
0.00184668
0.00183576
0.00182913
0.00182285
0.00182009
0.0018255
0.00182466
0.00183281
0.0018459
0.00186268
0.00193478
0.0019365
0.00176387
0.00147556
0.00117868
0.000961106
0.000860659
0.000869631
0.00100838
0.00119139
0.00132751
0.00186363
0.00183144
0.00184677
0.00183752
0.00183153
0.00182436
0.00182196
0.00182729
0.00182509
0.00183244
0.00184589
0.00186283
0.00193995
0.00193808
0.00175109
0.00144611
0.00115255
0.000936897
0.000849597
0.000888159
0.00105829
0.00118621
0.00134707
0.00186584
0.00183157
0.00184749
0.0018396
0.00183399
0.0018257
0.00182393
0.00182871
0.00182604
0.00183241
0.00184605
0.00186357
0.00194445
0.00193503
0.00172884
0.00140554
0.00110517
0.000879626
0.000778781
0.00080707
0.000980147
0.00112948
0.00132977
0.00186623
0.00183213
0.00184933
0.00184101
0.00183629
0.00182745
0.00182532
0.0018301
0.00182691
0.0018323
0.00184584
0.0018634
0.00194763
0.0019348
0.00171589
0.0013768
0.00106151
0.000829348
0.00072227
0.000725755
0.000888104
0.00104341
0.00128412
0.00186666
0.00183253
0.0018506
0.00184262
0.0018382
0.00182879
0.0018265
0.00183114
0.00182796
0.00183257
0.00184553
0.00186331
0.00195133
0.0019332
0.00170666
0.00135359
0.00102584
0.000792301
0.000663096
0.000648818
0.000777483
0.000934754
0.00121504
0.00186592
0.0018331
0.00185278
0.00184325
0.00183965
0.00183022
0.00182742
0.00183212
0.00182883
0.0018328
0.00184514
0.00186294
0.00195349
0.00193346
0.0016966
0.00133195
0.000989767
0.000759054
0.000611254
0.000569985
0.000673381
0.000818482
0.00112257
0.00186551
0.0018337
0.00185404
0.0018439
0.00184071
0.00183141
0.0018281
0.00183291
0.00182987
0.0018334
0.00184464
0.00186276
0.00195598
0.00193323
0.00168843
0.00131093
0.000965241
0.000732354
0.000565691
0.000504838
0.000585215
0.000704657
0.00100688
0.00186487
0.00183437
0.00185509
0.0018441
0.0018411
0.00183199
0.00182915
0.00183335
0.00183041
0.00183385
0.00184385
0.00186141
0.00195897
0.00193153
0.00168475
0.00129888
0.000956763
0.000706095
0.000521691
0.000459423
0.000513239
0.000606623
0.000884254
0.00186431
0.0018354
0.00185627
0.00184381
0.00184143
0.00183279
0.00182968
0.00183378
0.00183117
0.00183441
0.00184243
0.00186147
0.00195999
0.00193109
0.0016811
0.00128902
0.000942544
0.000683429
0.000491433
0.000428872
0.000456767
0.000526435
0.000763646
0.00186397
0.00183647
0.00185556
0.00184342
0.00184098
0.00183258
0.00183078
0.00183376
0.00183148
0.00183474
0.00184108
0.00186145
0.00196038
0.00193042
0.00167604
0.00128231
0.00092694
0.000659622
0.000477298
0.000411654
0.000417866
0.000463519
0.000649166
0.00186276
0.0018372
0.00185615
0.00184294
0.00184086
0.00183261
0.00183172
0.00183332
0.00183155
0.00183481
0.00183993
0.00186085
0.00195917
0.00192718
0.00166951
0.00127103
0.000910661
0.000645392
0.000477645
0.000405687
0.000389673
0.0004142
0.000548685
0.00186306
0.00183874
0.00185499
0.00184201
0.00184045
0.00183237
0.00183225
0.00183346
0.00183196
0.00183486
0.00183876
0.00186062
0.00195947
0.00191975
0.00165894
0.00126194
0.000907183
0.000646706
0.000487129
0.00041221
0.000377898
0.000376691
0.00046307
0.00185993
0.00183888
0.00185397
0.00184115
0.00183948
0.00183135
0.00183307
0.0018319
0.00183155
0.00183419
0.00183771
0.00186035
0.00195751
0.00190946
0.00164773
0.00125624
0.000916763
0.00066001
0.000507537
0.000426142
0.000371731
0.000348328
0.000395288
0.00186013
0.00183915
0.00185303
0.00184021
0.00183976
0.00183167
0.00183358
0.00183222
0.00183159
0.00183389
0.00183665
0.0018607
0.00195224
0.00189815
0.00163976
0.0012613
0.000938795
0.000682899
0.000537006
0.000450981
0.000379219
0.000327558
0.000345946
0.00185682
0.00184028
0.00185167
0.00183941
0.00183838
0.00183014
0.00183305
0.00183045
0.00183164
0.00183294
0.0018353
0.00186064
0.00194491
0.00188641
0.00163814
0.0012764
0.000968798
0.000715729
0.000574752
0.000480384
0.000389359
0.000314697
0.000311856
0.00185393
0.00183763
0.00184917
0.00183713
0.00183775
0.00182973
0.00183296
0.00183001
0.00183083
0.00183206
0.00183478
0.00186005
0.00193668
0.00187499
0.00164293
0.00129981
0.00100749
0.000758193
0.000620953
0.000515036
0.000409558
0.000310264
0.000292675
0.00185214
0.00183823
0.00184793
0.00183643
0.00183714
0.00182944
0.00183217
0.00182896
0.00183082
0.00182999
0.00183343
0.00186041
0.00192756
0.00186789
0.00165402
0.00132987
0.00105307
0.000806305
0.000671313
0.000557289
0.000429501
0.000313618
0.000285099
0.00184657
0.00183617
0.00184474
0.00183505
0.00183548
0.00182751
0.00182977
0.00182745
0.00183024
0.0018279
0.00183206
0.00186067
0.00191939
0.00186611
0.00167217
0.00136802
0.00110564
0.000863467
0.000726731
0.000595963
0.00045162
0.000322787
0.000286743
0.00183828
0.00183152
0.00184159
0.00182854
0.00183165
0.00182308
0.00182751
0.00182455
0.00182924
0.00182518
0.00183235
0.00186041
0.00191277
0.00186812
0.00169516
0.00141186
0.00115815
0.000925924
0.000782383
0.000634863
0.000475246
0.000335876
0.000295939
0.00183285
0.00182592
0.00183628
0.00182403
0.00182702
0.00182225
0.0018241
0.00182072
0.00182557
0.00182488
0.00183208
0.00185969
0.00190758
0.00187217
0.00172001
0.00145736
0.00121066
0.000986956
0.000835174
0.000666272
0.000496455
0.00035014
0.000310272
0.00182375
0.00182484
0.0018294
0.00182036
0.00182822
0.00182289
0.00182026
0.00182011
0.00182612
0.00182409
0.00183154
0.00185922
0.00190375
0.00187935
0.00174397
0.00149822
0.00125987
0.00104372
0.000883991
0.000693098
0.000516921
0.000364399
0.000327745
0.00181913
0.00182239
0.00182581
0.00181756
0.00182684
0.00182151
0.00182088
0.00181841
0.00182507
0.00182401
0.00183123
0.00185836
0.00190129
0.00188743
0.00176529
0.00153472
0.001302
0.00109152
0.000923773
0.000715366
0.000529095
0.000379678
0.000346467
0.001817
0.00182106
0.00182612
0.0018173
0.00182541
0.00182208
0.00181982
0.00181934
0.00182455
0.00182203
0.0018311
0.00185823
0.00189989
0.00189517
0.00178388
0.00156566
0.0013384
0.00113192
0.000952733
0.000730135
0.000543321
0.000392896
0.000364734
0.00181709
0.00182141
0.00182422
0.00181531
0.00182298
0.00182189
0.0018195
0.00181981
0.00182438
0.00182223
0.00183118
0.00185744
0.00189938
0.00190242
0.00179832
0.00159066
0.00136538
0.00116404
0.00097699
0.000738501
0.000550542
0.00040536
0.000381567
0.00181691
0.00181998
0.00182206
0.00181674
0.00182326
0.00181965
0.00181814
0.00181867
0.00182454
0.00182151
0.00182956
0.00185696
0.00189929
0.00190817
0.00180943
0.00161086
0.00138616
0.00118813
0.000994147
0.000744975
0.000551227
0.000420646
0.000395492
0.00181696
0.00181924
0.00182356
0.00181477
0.00182379
0.00182059
0.00181882
0.00181894
0.00182455
0.00182139
0.00183008
0.00185608
0.00189961
0.00191267
0.00181746
0.00162631
0.00140256
0.0012065
0.00100752
0.000755572
0.000558952
0.000433873
0.000410672
0.00181545
0.00181613
0.00182208
0.00181616
0.00182101
0.00182118
0.00181904
0.00181815
0.00182348
0.00182145
0.00183026
0.00185633
0.00189985
0.00191596
0.00182352
0.00163903
0.00141429
0.00121969
0.00101275
0.000761195
0.000559642
0.000446878
0.000425721
0.00181434
0.00181664
0.00182108
0.0018139
0.00182144
0.00182133
0.00181765
0.00182037
0.00182278
0.00182162
0.00183037
0.00185551
0.00189987
0.00191829
0.00182764
0.00164862
0.00142368
0.00123015
0.00102206
0.000764548
0.00056774
0.000459365
0.000442458
0.00181599
0.00181672
0.00182031
0.00181506
0.00182182
0.00182059
0.0018186
0.0018195
0.00182201
0.00182181
0.00182975
0.0018552
0.00189966
0.00192011
0.00183049
0.00165645
0.00143135
0.00123805
0.00102806
0.000769711
0.000563324
0.000469187
0.000457481
0.00181617
0.00181795
0.00182009
0.00181614
0.00182039
0.00182013
0.00181865
0.00181978
0.00182114
0.00182176
0.00182997
0.00185433
0.00189934
0.00192107
0.00183425
0.00166235
0.00143832
0.00124824
0.00103351
0.000779014
0.000565448
0.000477366
0.00046772
0.00181556
0.00181643
0.00182054
0.00181596
0.00181991
0.00182163
0.00181761
0.00181834
0.00182196
0.00182269
0.00182962
0.00185334
0.00189936
0.00192089
0.00183789
0.00166695
0.0014438
0.00125776
0.00103733
0.000786034
0.000565715
0.000482605
0.000477609
0.0018153
0.00181667
0.00182102
0.00181637
0.0018195
0.00182045
0.001817
0.0018188
0.00182242
0.00182122
0.00182944
0.00185251
0.00189852
0.00192179
0.00184289
0.00167212
0.00145101
0.00126959
0.00104399
0.000800002
0.000562143
0.000491941
0.000486755
0.00181358
0.00181798
0.00181961
0.00181603
0.00181969
0.00182013
0.00181843
0.00181968
0.00182066
0.00182176
0.00182815
0.00185248
0.00189896
0.00192276
0.00184655
0.00167713
0.00145754
0.00128042
0.00105129
0.000804299
0.000563175
0.000505779
0.000497778
0.00181615
0.00181788
0.00181898
0.00181547
0.00181943
0.00182031
0.00181717
0.0018198
0.00182261
0.00182226
0.00182889
0.00185135
0.00189951
0.00192236
0.00185238
0.00168352
0.00147113
0.00129653
0.00106027
0.000809588
0.000560687
0.000521611
0.000511041
0.00181759
0.00181761
0.00181798
0.00181608
0.00182037
0.00181902
0.00181662
0.00181835
0.00182252
0.00182237
0.00182814
0.00185177
0.00190177
0.00192369
0.00185469
0.00168846
0.00148234
0.00130991
0.00106938
0.0008159
0.000574712
0.000544154
0.000530868
0.0018168
0.00181533
0.00181738
0.00181604
0.0018207
0.00181934
0.00181704
0.00181758
0.0018225
0.00182227
0.0018274
0.00185025
0.00190151
0.00192289
0.00185777
0.00169741
0.00150449
0.0013277
0.00108018
0.000829262
0.000596318
0.00057315
0.000558002
0.00181622
0.00181464
0.00181659
0.00181772
0.00182307
0.00181739
0.00181515
0.00181653
0.00182305
0.00182172
0.00182721
0.00184886
0.00190332
0.00192345
0.00186133
0.00170396
0.00152004
0.00134237
0.0010964
0.000835497
0.000633434
0.000610446
0.00059195
0.00181566
0.00181613
0.00181696
0.00181658
0.0018224
0.00181906
0.0018157
0.00181643
0.00182224
0.00182286
0.0018277
0.00184674
0.00190472
0.00192512
0.00186681
0.00171532
0.00154902
0.00135992
0.001109
0.000841818
0.000679162
0.000657245
0.000636954
0.00181605
0.00181317
0.00181707
0.00181708
0.00182108
0.00181971
0.0018153
0.00181666
0.00182185
0.00182199
0.00182656
0.00184581
0.00190479
0.00192652
0.00186728
0.00172251
0.00156482
0.00137471
0.00112749
0.000830214
0.000726959
0.000711092
0.000688408
0.00181424
0.00181479
0.00181417
0.00181692
0.00181963
0.00182062
0.00181583
0.00181526
0.00182126
0.00182109
0.00182909
0.00184443
0.00190442
0.00192585
0.00187043
0.00173833
0.00159544
0.00139766
0.00114427
0.000859818
0.000783827
0.000774536
0.000752557
0.00181341
0.00181353
0.00181397
0.00181619
0.00181986
0.00181842
0.00181629
0.00181567
0.00181857
0.00181906
0.00182819
0.00184383
0.00190415
0.00192967
0.00187156
0.00174459
0.00161321
0.00140852
0.00115245
0.000890251
0.000839371
0.000837647
0.000816332
0.00181293
0.0018161
0.00181627
0.00181451
0.00181847
0.00181931
0.00181501
0.00181651
0.00181801
0.00182044
0.00182982
0.00184257
0.00190319
0.00193121
0.00187653
0.00176118
0.00164518
0.00142954
0.00118149
0.000945217
0.000902749
0.000908991
0.000892443
0.00181278
0.00181763
0.001818
0.00181177
0.00181814
0.00181691
0.0018156
0.00181829
0.00181917
0.00182197
0.00183051
0.00184228
0.00190391
0.00193119
0.00187593
0.00176549
0.00165424
0.00143197
0.00116542
0.000992922
0.000958636
0.00097174
0.00095893
0.00181245
0.00181756
0.00182087
0.00181297
0.00181799
0.00181473
0.00181919
0.00182002
0.00182006
0.00182247
0.00182898
0.001841
0.00189981
0.00193951
0.00188915
0.00178713
0.00168437
0.00147801
0.00118513
0.00104362
0.00103104
0.00105162
0.00104188
0.00181302
0.001818
0.00181999
0.00181625
0.00181827
0.0018146
0.00181977
0.00181999
0.00182061
0.00182208
0.00182764
0.00183994
0.00189463
0.00194618
0.00189881
0.00180345
0.00171201
0.00151886
0.00121373
0.00110122
0.00109809
0.00112556
0.00111724
0.00181282
0.00181857
0.00181515
0.00181797
0.00181863
0.0018174
0.00181775
0.00182064
0.00181959
0.0018207
0.00182667
0.00183872
0.0018889
0.00195171
0.0019137
0.00182467
0.00174102
0.00156908
0.00125875
0.00116578
0.00117124
0.00119373
0.00119191
0.00181413
0.0018135
0.00180958
0.00181743
0.00181843
0.001817
0.00181719
0.0018193
0.00182015
0.00182023
0.00182436
0.00183732
0.00188309
0.00195428
0.00192566
0.00184772
0.00177073
0.00161922
0.00132095
0.00122151
0.00123877
0.00126048
0.00126189
0.0018132
0.00181092
0.00180952
0.00181744
0.00181854
0.00181672
0.00181674
0.00181842
0.00182175
0.00182005
0.00182126
0.00183626
0.00187673
0.00195561
0.00193986
0.00187437
0.00180504
0.00166907
0.00140045
0.0012781
0.00129916
0.00133051
0.00133407
0.00181355
0.00181427
0.00181601
0.00181782
0.00181833
0.00181726
0.00181751
0.00181896
0.00182033
0.00182013
0.00182179
0.00183573
0.00187018
0.00195286
0.00194515
0.00189994
0.00183636
0.00172137
0.00147937
0.00134336
0.00136165
0.00139504
0.00140775
0.0018135
0.00181967
0.00181813
0.00181893
0.00181607
0.00181499
0.0018177
0.00181909
0.00181953
0.00181929
0.00182479
0.00183503
0.0018638
0.00194228
0.00196024
0.00192426
0.0018671
0.00177691
0.00156971
0.00142057
0.00142677
0.00146146
0.00146997
0.0018105
0.00182062
0.00182042
0.0018183
0.00181631
0.00181536
0.00181571
0.0018179
0.00181893
0.00181871
0.00182513
0.00183414
0.001858
0.00192784
0.00197812
0.00194769
0.00190162
0.00181687
0.00165669
0.00149785
0.00148189
0.00150273
0.00153938
0.00181344
0.00182156
0.001821
0.00181662
0.0018155
0.00181832
0.00181468
0.00181692
0.00181978
0.00181807
0.00182436
0.00183307
0.00185296
0.00190959
0.0019795
0.00197079
0.00193353
0.00187134
0.00174252
0.0015605
0.00153786
0.00156291
0.00160625
0.00181339
0.00182151
0.00181786
0.00181524
0.00181424
0.00181873
0.0018144
0.0018157
0.00181939
0.00181759
0.00182359
0.00183195
0.00184837
0.00189219
0.00196679
0.00198724
0.00196246
0.00191251
0.00181067
0.00164097
0.00159456
0.00162961
0.0016761
0.00181192
0.00181569
0.00181513
0.00181395
0.00181402
0.0018193
0.00181454
0.00181529
0.0018187
0.0018178
0.00182308
0.00183086
0.00184451
0.00187785
0.00194754
0.0019821
0.00198452
0.00196113
0.00186341
0.00173031
0.00164123
0.00164976
0.00170923
0.00180988
0.0018151
0.00181291
0.00181278
0.00181048
0.00181999
0.00181498
0.00181475
0.00181774
0.00181788
0.00182275
0.00182939
0.00184047
0.00186554
0.00192713
0.00196589
0.00198882
0.00199363
0.0019302
0.00181922
0.0017239
0.00173177
0.00175268
0.00180742
0.0018153
0.00181095
0.00181175
0.00180813
0.00181683
0.00181457
0.00181469
0.00181727
0.00181803
0.00182215
0.00182784
0.00183723
0.00185563
0.00190035
0.00195019
0.00197258
0.00200542
0.00199328
0.00190882
0.00182679
0.00181139
0.00181984
0.00180564
0.0018165
0.00180914
0.00181057
0.00180743
0.00181385
0.00181393
0.00181414
0.00181635
0.00181731
0.00182097
0.00182581
0.00183321
0.00184744
0.00187774
0.00192621
0.00195578
0.00198128
0.00201076
0.00198566
0.00191082
0.00191811
0.00191906
0.0018042
0.00181648
0.00180772
0.00180918
0.00180762
0.00181137
0.00181296
0.00181351
0.00181578
0.00181661
0.00181962
0.00182375
0.00182993
0.00183991
0.00186096
0.0019007
0.00193175
0.00195506
0.00197883
0.00202137
0.00197781
0.0019778
0.00199015
0.00180303
0.00181441
0.0018065
0.00180766
0.00180756
0.00180977
0.00181157
0.00181219
0.00181411
0.00181497
0.0018174
0.00182154
0.00182647
0.00183369
0.00184825
0.00187528
0.00190908
0.00193137
0.00194961
0.00198322
0.00200384
0.00201348
0.00203744
0.00180166
0.00181144
0.00180524
0.00180585
0.00180702
0.00180797
0.0018098
0.00181047
0.0018128
0.00181342
0.00181543
0.00181872
0.00182331
0.00182818
0.00183764
0.00185401
0.00188253
0.00190712
0.00192478
0.0019523
0.00197912
0.00202051
0.00204927
0.00180004
0.00180813
0.00180365
0.00180386
0.00180563
0.00180678
0.00180767
0.001808
0.00181017
0.00181134
0.00181273
0.00181652
0.00181998
0.00182376
0.00182987
0.00184015
0.00185755
0.00188275
0.00190031
0.00192113
0.00194446
0.00197835
0.00202958
0.00179786
0.00180539
0.00180155
0.00180158
0.0018037
0.00180482
0.00180542
0.0018053
0.00180767
0.00180913
0.00180981
0.00181307