/*--------------------------------*- C++ -*----------------------------------*\
  =========                 |
  \\      /  F ield         | OpenFOAM: The Open Source CFD Toolbox
   \\    /   O peration     | Website:  https://openfoam.org
    \\  /    A nd           | Version:  7
     \\/     M anipulation  |
\*---------------------------------------------------------------------------*/
FoamFile
{
    version     2.0;
    format      ascii;
    class       volScalarField;
    location    "50";
    object      omega;
}
// * * * * * * * * * * * * * * * * * * * * * * * * * * * * * * * * * * * * * //

dimensions      [0 0 -1 0 0 0 0];

internalField   nonuniform List<scalar> 
12842
(
3.14825
2.8497
2.65643
2.53623
2.44211
2.37978
2.32937
2.30088
2.27321
2.25749
2.24073
2.23218
2.22382
2.22227
2.22491
2.23329
2.2495
2.28241
2.32738
2.40778
2.46664
2.55698
2.60869
3.13431
2.83675
2.63723
2.51995
2.4338
2.37684
2.32751
2.29857
2.2712
2.25674
2.24046
2.23243
2.22371
2.22308
2.22633
2.23551
2.25351
2.28627
2.33451
2.41545
2.47487
2.56237
2.6179
3.11976
2.80888
2.61699
2.49403
2.40743
2.35811
2.31385
2.28898
2.26366
2.25204
2.2368
2.23073
2.22276
2.2231
2.22701
2.23746
2.25779
2.29258
2.345
2.42812
2.48863
2.57817
2.62908
3.09731
2.78284
2.59991
2.4813
2.39791
2.35008
2.30505
2.28287
2.25857
2.24778
2.23443
2.22953
2.22241
2.2231
2.2277
2.23938
2.26143
2.29792
2.35287
2.43908
2.49981
2.58553
2.64052
3.07839
2.74547
2.56061
2.45437
2.37407
2.33173
2.29482
2.27381
2.2523
2.24289
2.23042
2.22665
2.22141
2.22287
2.22858
2.24187
2.2664
2.30617
2.36497
2.45409
2.51857
2.5969
2.65279
3.05217
2.72974
2.5434
2.43429
2.36377
2.31775
2.28393
2.26866
2.24814
2.23848
2.22795
2.22496
2.22086
2.22268
2.22923
2.24385
2.2701
2.31203
2.37361
2.46668
2.52781
2.61189
2.66788
3.0292
2.69257
2.51505
2.41121
2.34205
2.30527
2.27088
2.25715
2.24256
2.23462
2.22476
2.22268
2.22004
2.22251
2.23039
2.24689
2.27549
2.32043
2.3856
2.48292
2.54768
2.64044
2.71321
3.0058
2.67594
2.49937
2.39878
2.33399
2.29429
2.26411
2.25124
2.23688
2.23081
2.22278
2.22052
2.21919
2.22201
2.23059
2.24811
2.27893
2.32751
2.39818
2.50186
2.57291
2.66461
2.76302
2.98217
2.64425
2.47749
2.37827
2.31804
2.28574
2.25513
2.24281
2.23169
2.22681
2.22055
2.2182
2.21828
2.22179
2.23111
2.24981
2.28144
2.33214
2.4073
2.52215
2.60526
2.73163
2.80861
2.95882
2.6229
2.46117
2.36989
2.31173
2.27794
2.25135
2.23932
2.22766
2.22384
2.219
2.2162
2.21723
2.22147
2.23195
2.2518
2.28699
2.34456
2.43064
2.555
2.65224
2.79901
2.91217
2.93133
2.59714
2.44145
2.35313
2.29926
2.27123
2.24501
2.23367
2.22372
2.22092
2.21733
2.21432
2.21584
2.22106
2.23251
2.25507
2.29329
2.35562
2.45029
2.60108
2.71449
2.89423
3.01371
2.90918
2.57492
2.42689
2.34532
2.29309
2.26489
2.24203
2.23102
2.2212
2.21892
2.21546
2.21217
2.21419
2.2201
2.23405
2.26084
2.30601
2.38236
2.49913
2.67362
2.80591
3.00892
3.15611
2.88119
2.55424
2.40996
2.32988
2.28324
2.25828
2.23621
2.22592
2.21799
2.21645
2.2136
2.21002
2.21246
2.21963
2.23646
2.26891
2.32344
2.41731
2.54728
2.7506
2.90388
3.13431
3.3089
2.86128
2.53377
2.39709
2.32269
2.27751
2.25381
2.23318
2.22311
2.2161
2.21485
2.21114
2.20763
2.21082
2.21957
2.24149
2.28667
2.35867
2.47902
2.62965
2.85543
3.0421
3.26834
3.47816
2.83391
2.51769
2.38432
2.30864
2.26926
2.24761
2.22705
2.2173
2.21228
2.21121
2.20822
2.20564
2.20926
2.22104
2.25414
2.31909
2.40297
2.54285
2.70393
2.95238
3.17278
3.41796
3.64809
2.81685
2.50026
2.37206
2.30169
2.26483
2.24453
2.2237
2.21396
2.20979
2.20882
2.20497
2.2035
2.20945
2.23069
2.28489
2.36526
2.46295
2.62814
2.81437
3.08001
3.33153
3.57589
3.83175
2.79108
2.48794
2.36348
2.28943
2.25737
2.23916
2.21685
2.20673
2.20436
2.20398
2.2021
2.20137
2.21441
2.25541
2.32492
2.42187
2.53216
2.71423
2.90754
3.19117
3.47445
3.74199
4.01385
2.77624
2.4735
2.35252
2.28258
2.25381
2.23528
2.21318
2.20278
2.20097
2.20081
2.19914
2.20235
2.23481
2.29511
2.38199
2.49064
2.61371
2.81365
3.03505
3.32919
3.6398
3.92174
4.21049
2.75403
2.46354
2.34614
2.27289
2.24706
2.22974
2.2056
2.19638
2.19561
2.19645
2.19625
2.20896
2.26834
2.34472
2.44319
2.56262
2.69794
2.91248
3.13599
3.44721
3.7813
4.09352
4.39569
2.74032
2.4517
2.33773
2.2654
2.24291
2.224
2.20219
2.19387
2.19353
2.19541
2.20062
2.23493
2.31756
2.40772
2.51902
2.64709
2.79336
3.01398
3.26803
3.58673
3.95752
4.29259
4.6131
2.72189
2.44291
2.33277
2.2589
2.23714
2.21568
2.19588
2.18959
2.18998
2.19278
2.20661
2.26937
2.37371
2.47495
2.59144
2.72348
2.88009
3.1156
3.36662
3.70678
4.09537
4.46498
4.80423
2.71043
2.43258
2.32626
2.24999
2.22998
2.20949
2.19362
2.19349
2.19416
2.20219
2.23848
2.32565
2.44419
2.55251
2.67575
2.81459
2.97929
3.21014
3.49482
3.84405
4.26629
4.67892
5.0361
2.69402
2.42439
2.3225
2.24499
2.22511
2.20219
2.18877
2.20451
2.20958
2.22475
2.27425
2.38332
2.51418
2.62689
2.74968
2.88735
3.06039
3.30783
3.58624
3.96085
4.39695
4.84623
5.24548
2.68611
2.41732
2.3197
2.23732
2.2188
2.19533
2.19095
2.23179
2.24092
2.26682
2.34165
2.46596
2.59955
2.71176
2.83449
2.9759
3.15215
3.39009
3.704
4.09362
4.5586
5.05256
5.4817
2.67588
2.41113
2.31822
2.23254
2.21408
2.19239
2.20234
2.26708
2.28086
2.31845
2.4076
2.54295
2.67571
2.78646
2.90682
3.04558
3.22969
3.48738
3.79931
4.21436
4.70523
5.22306
5.68511
2.66911
2.40565
2.31538
2.22808
2.21024
2.19527
2.23265
2.31218
2.33116
2.38102
2.48284
2.62201
2.75164
2.86079
2.97961
3.12287
3.30957
3.55746
3.89876
4.33493
4.83978
5.40075
5.89619
2.66062
2.39925
2.31301
2.22271
2.21229
2.20896
2.27072
2.36535
2.3921
2.45404
2.56127
2.69981
2.82233
2.92752
3.04482
3.18434
3.37475
3.64486
3.99213
4.4449
4.98757
5.55826
6.06427
2.65201
2.39312
2.30814
2.22112
2.22089
2.23846
2.32042
2.42564
2.458
2.52997
2.64176
2.77458
2.89016
2.99201
3.10441
3.24764
3.4433
3.70232
4.06561
4.5428
5.08956
5.68703
6.22841
2.64498
2.38596
2.3034
2.22331
2.25133
2.2775
2.37433
2.48871
2.52757
2.60803
2.71923
2.84389
2.95024
3.04749
3.16094
3.30045
3.49209
3.77475
4.15435
4.64412
5.22363
5.82456
6.35278
2.6356
2.37863
2.29932
2.23631
2.28203
2.32734
2.43652
2.55501
2.59836
2.68438
2.7928
2.90752
3.00655
3.09991
3.20545
3.34679
3.55029
3.8245
4.20698
4.71521
5.30311
5.90846
6.47706
2.62844
2.37042
2.29301
2.26025
2.33209
2.38324
2.49974
2.61941
2.6658
2.75653
2.85989
2.96418
3.0545
3.14358
3.25257
3.39213
3.58457
3.87664
4.28297
4.80657
5.41136
6.01342
6.56817
2.61865
2.36379
2.29151
2.29244
2.37623
2.44687
2.56567
2.68328
2.73298
2.8247
2.92014
3.01465
3.09885
3.18435
3.28448
3.4241
3.63305
3.92586
4.32734
4.86303
5.47466
6.07212
6.68997
2.61245
2.35654
2.29524
2.33196
2.4309
2.50899
2.62897
2.74255
2.79244
2.88489
2.97328
3.0584
3.13563
3.21729
3.32095
3.46058
3.65775
3.95855
4.3846
4.93217
5.55742
6.17412
6.78987
2.60126
2.3492
2.30963
2.37891
2.48151
2.5761
2.69067
2.79916
2.84915
2.93927
3.01891
3.09646
3.16927
3.24854
3.34583
3.48625
3.69904
4.00834
4.43632
4.99948
5.62976
6.22987
6.91191
2.59492
2.34782
2.32876
2.42747
2.5328
2.63538
2.74678
2.84896
2.89878
2.98624
3.05816
3.12896
3.1968
3.27246
3.37155
3.5135
3.71947
4.03321
4.4718
5.04388
5.69077
6.35956
7.04742
2.58576
2.35777
2.35603
2.48146
2.5834
2.69519
2.7986
2.89454
2.94293
3.02567
3.091
3.15657
3.22166
3.29675
3.39399
3.5378
3.75765
4.08294
4.53962
5.13406
5.80031
6.44949
7.13697
2.57643
2.37132
2.38518
2.53108
2.63021
2.74559
2.84405
2.93557
2.98125
3.05991
3.11853
3.18004
3.242
3.31387
3.41152
3.56125
3.7808
4.11085
4.57949
5.19555
5.87566
6.57739
7.28084
2.57097
2.39992
2.42059
2.58348
2.67762
2.79307
2.88369
2.96852
3.01522
3.08723
3.1416
3.1996
3.26019
3.33334
3.43398
3.58503
3.8147
4.16954
4.66322
5.29497
6.03077
6.78095
7.49943
2.56402
2.42395
2.4573
2.62924
2.71865
2.83224
2.91891
3.00106
3.0437
3.1102
3.16035
3.21627
3.27525
3.34634
3.44766
3.61067
3.85749
4.21198
4.723
5.44027
6.20353
7.01242
7.77025
2.55557
2.46363
2.49769
2.67643
2.76316
2.86833
2.94797
3.0279
3.06957
3.1285
3.17724
3.23008
3.28867
3.36247
3.47018
3.63687
3.88534
4.27729
4.85174
5.55911
6.43621
7.3022
8.23396
2.5549
2.49814
2.54034
2.7162
2.79805
2.89955
2.97553
3.04984
3.09163
3.14368
3.19014
3.24185
3.30018
3.3742
3.48597
3.66668
3.95408
4.37831
4.95135
5.83383
6.80022
7.98082
9.34858
2.56588
2.54388
2.5851
2.75883
2.8378
2.92867
2.99936
3.07429
3.11014
3.15626
3.20284
3.25188
3.31048
3.38843
3.50848
3.7078
4.00582
4.44963
5.1639
6.10669
7.40173
8.99854
10.9012
2.58594
2.58601
2.6314
2.79537
2.87171
2.95533
3.02222
3.09197
3.12488
3.16593
3.21183
3.26035
3.31974
3.40087
3.53108
3.73736
4.07568
4.61897
5.36843
6.60449
8.29528
10.4861
13.0869
2.61237
2.63316
2.68003
2.83373
2.90618
2.9815
3.04198
3.09652
3.13576
3.17399
3.22091
3.26818
3.32856
3.4156
3.55508
3.80374
4.20072
4.76968
5.71123
7.31098
9.49767
12.38
15.5735
2.64029
2.67566
2.7266
2.86802
2.93776
3.00423
3.06232
3.10533
3.14638
3.1794
3.22737
3.27458
3.3362
3.42894
3.58719
3.84756
4.2786
4.98564
6.18542
8.1811
10.9895
14.5241
18.6955
2.66863
2.72135
2.77375
2.90121
2.96609
3.02707
3.07808
3.11435
3.14905
3.18481
3.2336
3.28125
3.34529
3.44795
3.61816
3.92877
4.45844
5.3377
6.78345
9.31412
12.64
16.6733
22.0848
2.6956
2.75917
2.81395
2.93185
2.98959
3.04394
3.09172
3.11611
3.14962
3.18849
3.23795
3.28642
3.35138
3.46089
3.65739
4.01686
4.63003
5.61966
7.46825
10.4919
14.1863
19.1529
27.3581
2.7211
2.79923
2.85521
2.95763
3.01148
3.06227
3.10073
3.12091
3.15368
3.19321
3.24294
3.29269
3.36231
3.48787
3.70809
4.1094
4.82855
6.15294
8.40039
11.6861
16.0271
23.1968
36.1374
2.74685
2.83138
2.888
2.9803
3.02933
3.07444
3.10953
3.12792
3.1591
3.19724
3.24616
3.29718
3.36769
3.50183
3.74792
4.25359
5.17129
6.69108
9.10047
12.8287
19.0017
31.8918
56.3297
2.77239
2.86556
2.92222
3.00226
3.04604
3.08858
3.11659
3.13588
3.16451
3.20217
3.25116
3.30388
3.37944
3.53307
3.82921
4.39311
5.4082
7.14538
9.99173
14.9619
25.7693
46.928
74.0347
2.79922
2.89153
2.94755
3.01867
3.05798
3.09763
3.123
3.14271
3.16949
3.20704
3.25455
3.30812
3.38638
3.55223
3.87169
4.5373
5.7695
7.73799
10.894
17.3865
32.6804
60.3725
89.5317
2.82188
2.91633
2.96974
3.03374
3.06845
3.10658
3.1292
3.14906
3.17394
3.21185
3.25923
3.31413
3.39741
3.58388
3.95471
4.73699
6.07406
8.29395
12.2672
21.7366
43.1402
73.3298
97.9778
2.84362
2.93559
2.98704
3.04425
3.0771
3.11308
3.13502
3.15432
3.17846
3.2168
3.26223
3.31813
3.40441
3.60411
4.00625
4.85422
6.38008
8.96241
13.8332
25.6006
49.3667
81.3107
106.944
2.86276
2.9543
3.00171
3.05415
3.08487
3.12005
3.14136
3.15976
3.18297
3.22154
3.2661
3.32299
3.41451
3.63578
4.0908
5.07993
6.871
9.88636
16.0127
30.7351
57.9624
90.4501
112.808
2.88074
2.97037
3.01436
3.06246
3.09254
3.12614
3.14694
3.16468
3.18782
3.22616
3.26896
3.32687
3.42098
3.65552
4.14632
5.22416
7.10863
10.509
17.7857
34.288
61.4437
94.236
118.153
2.89931
2.98614
3.02548
3.07041
3.09944
3.13255
3.15327
3.17009
3.19267
3.23071
3.27224
3.33096
3.42953
3.68381
4.22572
5.41587
7.53391
11.6993
20.5356
38.4356
66.2614
99.6567
123.339
2.91699
3.0004
3.03463
3.07804
3.10632
3.13818
3.15886
3.17485
3.19708
3.23424
3.27471
3.33402
3.43483
3.70063
4.27089
5.54766
7.90616
12.4933
21.7739
39.653
66.5558
99.8834
124.213
2.93477
3.01369
3.04331
3.08533
3.1131
3.14409
3.16516
3.17978
3.2011
3.23755
3.27711
3.33677
3.43979
3.71611
4.30697
5.66044
8.21035
13.0894
22.5222
39.8461
66.5461
99.0593
124.861
2.95184
3.02733
3.05197
3.09385
3.12098
3.15037
3.17131
3.18501
3.20542
3.24021
3.2797
3.33925
3.4436
3.728
4.3436
5.76015
8.51511
13.5747
22.8379
39.922
65.3815
97.5655
124.945
2.96961
3.04059
3.06125
3.10234
3.12939
3.15726
3.17813
3.19037
3.20942
3.24308
3.28205
3.34175
3.44789
3.7405
4.36515
5.85326
8.72876
13.8052
22.8719
39.2413
62.7034
95.0854
124.336
2.98565
3.05383
3.07152
3.11225
3.13877
3.16463
3.18438
3.19631
3.21393
3.24521
3.28469
3.34425
3.45065
3.74544
4.37546
5.90197
8.75524
13.905
22.8921
37.3484
58.7715
90.4738
121.469
3.00224
3.06713
3.08199
3.12196
3.14835
3.17263
3.19117
3.20233
3.21834
3.24803
3.28704
3.34439
3.45184
3.74796
4.38468
5.92849
8.77842
13.9007
22.5437
34.8675
54.0433
83.8086
115.86
3.01701
3.07959
3.09403
3.13303
3.15861
3.18109
3.19725
3.20897
3.22327
3.2504
3.28953
3.34477
3.45309
3.7501
4.38346
5.92518
8.79595
13.8966
21.5681
31.8842
48.4648
75.5874
108.182
3.03302
3.09279
3.10577
3.14345
3.16836
3.18966
3.20378
3.21585
3.22839
3.25366
3.29169
3.34589
3.45437
3.75139
4.38379
5.93102
8.79949
13.7088
20.2571
28.8211
43.12
66.8875
98.4477
3.04719
3.10526
3.11817
3.15519
3.17832
3.19895
3.2101
3.22269
3.23354
3.25677
3.29404
3.34636
3.45386
3.75281
4.38457
5.92393
8.67785
13.2132
18.7724
25.7216
37.6594
58.5677
87.8988
3.06355
3.11756
3.13099
3.16568
3.1879
3.20762
3.21646
3.23032
3.23934
3.26071
3.29596
3.34682
3.45376
3.75171
4.38535
5.89771
8.42825
12.5513
17.1987
22.9018
33.1867
51.3985
77.2681
3.07792
3.13112
3.14271
3.17754
3.19647
3.21642
3.22339
3.23695
3.24445
3.26476
3.29789
3.34716
3.45381
3.75302
4.37829
5.81572
8.09795
11.7869
15.6394
20.3526
29.0483
45.6307
67.3467
3.0946
3.14237
3.15537
3.1876
3.20588
3.22557
3.22989
3.24438
3.2502
3.26876
3.3003
3.34671
3.45352
3.75142
4.35245
5.69792
7.72385
10.9729
14.1548
18.1589
25.9195
41.0447
58.8808
3.10921
3.15588
3.16711
3.19869
3.21382
3.23289
3.23712
3.25089
3.2555
3.27397
3.30122
3.34758
3.45331
3.74885
4.31162
5.54986
7.31991
10.1535
12.7913
16.3503
23.142
37.3163
51.5775
3.1258
3.16787
3.17805
3.20919
3.22164
3.24165
3.24405
3.25763
3.26075
3.2779
3.30376
3.34682
3.45336
3.73785
4.26036
5.38369
6.92484
9.36771
11.6106
14.804
21.1876
34.2372
45.6055
3.14028
3.17962
3.19074
3.21792
3.23074
3.24816
3.25163
3.2639
3.266
3.2822
3.30608
3.34682
3.45196
3.722
4.19996
5.20989
6.54967
8.6502
10.595
13.68
19.5513
31.6399
40.7914
3.15685
3.19104
3.20001
3.22895
3.23776
3.25695
3.2578
3.26891
3.27086
3.28823
3.30543
3.34706
3.44902
3.70176
4.13485
5.03748
6.21648
8.02407
9.77415
12.7218
18.4238
29.4928
36.8589
3.16883
3.20463
3.21204
3.23713
3.2467
3.2605
3.26584
3.27602
3.27712
3.2899
3.30544
3.34721
3.44522
3.68001
4.07058
4.87444
5.92821
7.49704
9.11328
12.0299
17.6551
27.796
33.6273
3.18574
3.20967
3.22238
3.24455
3.24814
3.2619
3.27184
3.27886
3.27768
3.29101
3.30649
3.34673
3.44107
3.65713
4.01144
4.73095
5.68879
7.0704
8.60336
11.5212
16.9172
26.4632
31.0339
3.19481
3.21222
3.22935
3.25126
3.24975
3.26501
3.27172
3.28084
3.27845
3.29203
3.30573
3.34653
3.43687
3.63528
3.96011
4.60937
5.49645
6.73843
8.21002
11.1116
16.5649
25.4145
28.9499
3.19692
3.2154
3.22933
3.25114
3.25356
3.26386
3.27215
3.28017
3.27979
3.29433
3.30564
3.34526
3.43299
3.61567
3.91716
4.512
5.34758
6.48359
7.93778
10.8355
16.1996
24.5882
27.3494
3.19703
3.21537
3.23019
3.25435
3.25611
3.26581
3.27301
3.28019
3.28126
3.2938
3.30553
3.34493
3.42946
3.59888
3.88326
4.43588
5.23518
6.29577
7.72771
10.6766
16.007
23.8545
26.1406
3.19702
3.21578
3.23401
3.25271
3.25547
3.26807
3.27528
3.28066
3.2812
3.29488
3.30697
3.34439
3.4266
3.5851
3.85718
4.3778
5.15274
6.16156
7.58152
10.5794
15.9642
23.1888
25.1979
3.19705
3.2161
3.23248
3.25579
3.25515
3.2665
3.27416
3.28042
3.28108
3.29501
3.30582
3.3443
3.42409
3.57429
3.83778
4.33418
5.09162
6.06269
7.4741
10.4261
15.8272
22.4969
24.3173
3.19937
3.22103
3.2325
3.25454
3.25785
3.26723
3.27464
3.28174
3.28312
3.2948
3.3056
3.34264
3.42226
3.56641
3.82371
4.30081
5.04547
5.99402
7.42522
10.3386
15.8722
21.8811
23.4974
3.20105
3.21937
3.23423
3.25615
3.25669
3.26527
3.27519
3.28013
3.28253
3.29445
3.30542
3.34244
3.4206
3.56072
3.81341
4.27518
5.00762
5.9386
7.35105
10.2803
15.6809
21.2919
22.7166
3.19723
3.21873
3.2373
3.25376
3.25632
3.26725
3.27318
3.28017
3.28391
3.29466
3.30522
3.34195
3.41955
3.55657
3.80584
4.2553
4.97831
5.89595
7.29671
10.219
15.7567
20.8567
22.062
3.19643
3.21897
3.23807
3.25333
3.25613
3.2656
3.2735
3.27963
3.28493
3.29282
3.30523
3.34172
3.41824
3.55332
3.80003
4.24004
4.95223
5.84736
7.25178
10.0856
15.7407
20.4937
21.5341
3.19568
3.21818
3.23649
3.25323
3.2564
3.2648
3.27304
3.28151
3.283
3.29248
3.30596
3.34245
3.41744
3.55079
3.79583
4.22815
4.93471
5.80129
7.21979
10.013
15.771
20.1677
21.1128
3.19554
3.21781
3.235
3.25255
3.25577
3.26481
3.27387
3.28024
3.28437
3.29345
3.30413
3.34194
3.41591
3.54851
3.79164
4.21824
4.91212
5.74447
7.1714
9.83562
15.7535
19.7594
20.6592
3.19709
3.21801
3.23455
3.25141
3.25525
3.26559
3.27153
3.27974
3.28574
3.29276
3.30593
3.34068
3.41474
3.54678
3.78868
4.21129
4.89661
5.69458
7.1238
9.78865
15.7926
19.2091
20.0728
3.19228
3.21733
3.23496
3.25109
3.25475
3.26529
3.27382
3.27962
3.28359
3.29153
3.3042
3.34021
3.4126
3.54495
3.78441
4.20286
4.86226
5.63125
7.06445
9.7506
15.921
18.4761
19.2978
3.19184
3.2159
3.23419
3.24981
3.25283
3.26453
3.27169
3.28074
3.28375
3.29094
3.30496
3.33772
3.41098
3.54368
3.78023
4.19743
4.83401
5.57975
7.00973
9.6398
15.6603
17.5489
18.3366
3.19445
3.21435
3.23297
3.2457
3.25354
3.26377
3.27272
3.28146
3.28251
3.29064
3.3051
3.33722
3.40845
3.542
3.77518
4.18689
4.77578
5.51152
6.95631
9.58258
14.9871
16.4575
17.2034
3.19303
3.21421
3.23284
3.24495
3.25008
3.26368
3.27337
3.28136
3.28042
3.29054
3.30445
3.33768
3.40678
3.54091
3.77198
4.17972
4.73287
5.46042
6.86826
9.50587
14.1575
15.2979
15.9854
3.19204
3.20886
3.22795
3.24321
3.24966
3.26006
3.27258
3.28056
3.27973
3.2878
3.30354
3.33759
3.40418
3.53894
3.76475
4.16255
4.65895
5.3894
6.79727
9.50827
13.2039
14.0784
14.6852
3.18927
3.21239
3.22682
3.24292
3.24992
3.25973
3.27164
3.27962
3.27842
3.2873
3.30247
3.33702
3.40265
3.53751
3.76119
4.15167
4.61382
5.34202
6.68301
9.58919
12.3071
12.9599
13.4736
3.18688
3.20767
3.22641
3.24157
3.25016
3.25853
3.2698
3.27839
3.27782
3.288
3.29953
3.33522
3.40007
3.53451
3.75446
4.12461
4.53515
5.26595
6.59749
9.37746
11.3588
11.8452
12.2623
3.18672
3.20927
3.22631
3.24107
3.2482
3.26128
3.26841
3.27686
3.27878
3.28806
3.29854
3.33418
3.39858
3.53214
3.75431
4.11057
4.49704
5.22605
6.5614
9.09119
10.5755
10.9265
11.2533
3.17912
3.20806
3.22269
3.24245
3.24662
3.25788
3.26632
3.27531
3.27892
3.28509
3.29693
3.33163
3.39417
3.5262
3.74341
4.07298
4.41775
5.15183
6.41626
8.60405
9.7563
10.0241
10.278
3.17785
3.20485
3.22131
3.2412
3.24156
3.2596
3.26458
3.27309
3.27752
3.28337
3.29615
3.3312
3.39475
3.52803
3.74672
4.06462
4.39148
5.15353
6.4956
8.32384
9.17846
9.35761
9.54961
3.17935
3.20232
3.21469
3.23764
3.2404
3.25742
3.25944
3.2684
3.27607
3.28246
3.2965
3.32806
3.3886
3.51405
3.71838
4.01649
4.31421
4.99718
6.38472
7.80784
8.48417
8.62764
8.78182
3.17947
3.19658
3.21324
3.23381
3.24086
3.25546
3.25768
3.26576
3.27224
3.28074
3.2955
3.32423
3.38171
3.49921
3.68872
3.97026
4.24354
4.84789
6.25503
7.39707
7.93457
8.05565
8.18802
3.17556
3.18669
3.21395
3.2294
3.23889
3.25061
3.25803
3.26156
3.26996
3.27947
3.29245
3.31973
3.37379
3.48261
3.65684
3.92125
4.17306
4.69866
6.0218
7.01594
7.44598
7.54541
7.66368
3.16836
3.1832
3.21216
3.22657
3.23599
3.24567
3.25475
3.26019
3.2651
3.2761
3.28908
3.31489
3.36502
3.46459
3.62319
3.86922
4.10041
4.54943
5.71541
6.63805
6.9955
7.07874
7.18443
3.16084
3.18376
3.20842
3.22157
3.22973
3.24088
3.25024
3.25671
3.25853
3.27191
3.2842
3.30899
3.35538
3.44521
3.58812
3.81418
4.02602
4.40678
5.38374
6.2569
6.58824
6.66303
6.76009
3.15465
3.18032
3.19819
3.2147
3.22123
3.23247
3.24331
3.25001
3.25638
3.26717
3.27914
3.30248
3.34493
3.42496
3.55209
3.75655
3.94914
4.27116
5.05474
5.88326
6.2045
6.2795
6.36685
3.14324
3.16626
3.19005
3.20462
3.21591
3.22634
3.23577
3.24286
3.25024
3.26098
3.27314
3.29498
3.3333
3.40367
3.51543
3.69764
3.87171
4.14607
4.7593
5.52616
5.87049
5.95657
6.02779
3.13103
3.15638
3.17796
3.19653
3.20858
3.21736
3.22936
3.23674
3.24283
3.25361
3.26586
3.28628
3.32092
3.38241
3.4792
3.6381
3.79401
4.03089
4.50917
5.20447
5.56036
5.67926
5.7559
3.1222
3.14277
3.16537
3.18772
3.19836
3.20661
3.22109
3.2284
3.23182
3.24343
3.25623
3.27536
3.30658
3.36022
3.44376
3.57965
3.71754
3.92225
4.30466
4.92637
5.29949
5.44663
5.52949
3.10956
3.1288
3.15737
3.17715
3.18463
3.1948
3.21184
3.21937
3.22241
3.23321
3.2453
3.26322
3.29162
3.33833
3.41051
3.5254
3.64423
3.81841
4.1182
4.67263
5.06864
5.25079
5.35067
3.0934
3.12109
3.14436
3.16288
3.16952
3.1793
3.19821
3.20602
3.21053
3.22023
3.23174
3.24817
3.27376
3.31458
3.37777
3.47466
3.57625
3.72217
3.96175
4.42598
4.84055
5.08106
5.20188
3.07527
3.10265
3.12873
3.14714
3.15536
3.16115
3.18267
3.19156
3.19722
3.20635
3.21689
3.23259
3.25585
3.2909
3.34433
3.43083
3.51535
3.63251
3.81914
4.19491
4.59558
4.86958
5.05296
3.05355
3.07843
3.10837
3.12713
3.13746
3.14528
3.16334
3.17184
3.17872
3.18757
3.19833
3.21268
3.23358
3.2643
3.30909
3.38583
3.46066
3.55162
3.69274
3.96448
4.34637
4.62545
4.85843
3.03034
3.05079
3.08592
3.10586
3.11795
3.12841
3.14297
3.15151
3.15872
3.16816
3.17856
3.19245
3.21133
3.23751
3.27447
3.34088
3.40951
3.48048
3.58466
3.76627
4.08982
4.36276
4.61312
3.00207
3.01975
3.05707
3.07893
3.09211
3.10467
3.11666
3.12513
3.13279
3.14238
3.1531
3.16577
3.18288
3.20623
3.23612
3.29075
3.35548
3.4121
3.48706
3.60805
3.85847
4.09139
4.36568
2.97205
2.99033
3.02611
3.05054
3.06441
3.07809
3.08956
3.09851
3.10617
3.11635
3.12693
3.13869
3.15421
3.17469
3.19879
3.24071
3.30203
3.34962
3.405
3.48739
3.65358
3.88152
4.09764
2.93509
2.95529
2.98743
3.01448
3.02861
3.043
3.05454
3.06402
3.07184
3.08164
3.09226
3.10314
3.11658
3.13606
3.15464
3.18413
3.23796
3.28387
3.32504
3.38133
3.47781
3.66394
3.88748
2.89627
2.91905
2.94786
2.97703
2.99155
3.00593
3.01877
3.02919
3.03706
3.04677
3.05733
3.06737
3.07853
3.09711
3.11348
3.13382
3.17184
3.21927
3.25598
3.29566
3.35766
3.46122
3.67347
2.84848
2.87252
2.89931
2.92931
2.94411
2.95835
2.97188
2.98331
2.99145
3.00017
3.01044
3.0206
3.02925
3.04495
3.06086
3.07568
3.09871
3.13951
3.17744
3.20846
3.24806
3.31092
3.42409
2.79928
2.82482
2.85132
2.88093
2.8965
2.91
2.92468
2.93712
2.94565
2.95395
2.96362
2.97395
2.98202
2.99406
3.01002
3.02239
3.03697
3.06259
3.09968
3.13135
3.16004
3.19657
3.26251
2.73884
2.76446
2.79117
2.81917
2.8353
2.8481
2.86267
2.876
2.88493
2.89241
2.90087
2.91116
2.91802
2.9275
2.94062
2.95356
2.96334
2.97752
3.00259
3.03371
3.06339
3.08793
3.12709
2.67868
2.70565
2.73277
2.75894
2.77578
2.78758
2.80251
2.81617
2.82566
2.8332
2.84109
2.85103
2.85888
2.86612
2.87643
2.88787
2.89876
2.90746
2.92191
2.94265
2.96941
2.99329
3.02214
2.60395
2.63086
2.65737
2.68138
2.69818
2.70905
2.72287
2.73685
2.74626
2.75328
2.75964
2.76838
2.77603
2.78228
2.79016
2.79807
2.80724
2.81559
2.82455
2.8367
2.85455
2.87266
2.89698
2.53324
2.56152
2.5868
2.60945
2.62626
2.63612
2.64968
2.66308
2.67319
2.6808
2.68737
2.69475
2.70316
2.70913
2.71665
2.72318
2.73064
2.73754
2.74501
2.75285
2.76525
2.77726
2.79559
2.44277
2.47017
2.49295
2.51389
2.52923
2.5384
2.55001
2.56237
2.57144
2.57811
2.58442
2.58963
2.59699
2.60213
2.60847
2.61372
2.61971
2.62463
2.63048
2.63463
2.64216
2.64893
2.66058
2.36319
2.39105
2.41121
2.43137
2.44636
2.45461
2.46585
2.47729
2.48661
2.49341
2.4998
2.5057
2.51191
2.5172
2.52325
2.52809
2.53451
2.5391
2.54514
2.54899
2.55433
2.55792
2.56448
2.25535
2.27994
2.29634
2.31378
2.32592
2.33384
2.34267
2.35172
2.35891
2.36422
2.36875
2.37301
2.37835
2.38234
2.38681
2.39046
2.39479
2.39832
2.40326
2.40623
2.41056
2.41322
2.4173
2.17151
2.19535
2.20878
2.22511
2.2359
2.24294
2.25242
2.26188
2.26949
2.27501
2.27971
2.28304
2.28751
2.29132
2.29556
2.29903
2.30359
2.30678
2.31132
2.31425
2.31903
2.32126
2.32581
2.04316
2.06006
2.06852
2.07978
2.08626
2.09011
2.09496
2.10137
2.10726
2.1116
2.11547
2.11794
2.12065
2.1229
2.12568
2.12757
2.13089
2.1336
2.13743
2.13985
2.14223
2.14294
2.14525
1.96201
1.98024
1.98731
1.99765
2.00337
2.00659
2.01023
2.0155
2.02098
2.02539
2.02948
2.03249
2.03526
2.03748
2.04013
2.04197
2.04502
2.0477
2.05149
2.05333
2.05689
2.0569
2.05939
1.79666
1.79964
1.79647
1.79655
1.79613
1.79469
1.79276
1.79183
1.79241
1.79341
1.79472
1.79708
1.79804
1.79868
1.80071
1.80081
1.80251
1.80489
1.80835
1.80982
1.81174
1.81249
1.81324
3.06816
2.73796
2.5572
2.44365
2.3754
2.32689
2.28753
2.2621
2.24144
2.2341
2.22455
2.22016
2.21565
2.21721
2.22263
2.23498
2.25807
2.29613
2.35321
2.44356
2.51187
2.62121
2.67875
3.07981
2.75605
2.56667
2.45222
2.38445
2.33189
2.29244
2.26738
2.24545
2.23718
2.2264
2.22206
2.21683
2.21811
2.22314
2.2349
2.25679
2.29289
2.34672
2.43338
2.49356
2.58898
2.63794
3.09674
2.77393
2.58816
2.47682
2.3976
2.34347
2.29858
2.27215
2.25008
2.2418
2.23036
2.22494
2.21837
2.21929
2.22363
2.23444
2.25536
2.29044
2.34366
2.4282
2.48989
2.58297
2.63502
3.11127
2.79778
2.61071
2.49191
2.40987
2.35236
2.30638
2.28121
2.25809
2.24807
2.23341
2.22714
2.21955
2.22012
2.22399
2.23399
2.25366
2.28686
2.33743
2.41885
2.47786
2.56782
2.62086
3.12675
2.81856
2.62879
2.50624
2.41681
2.35907
2.31209
2.28698
2.26282
2.2511
2.23583
2.22931
2.22113
2.22116
2.22444
2.23354
2.25179
2.28407
2.33229
2.41373
2.47193
2.56016
2.60907
3.13947
2.83859
2.64562
2.52308
2.43137
2.37389
2.32737
2.2989
2.27099
2.25604
2.239
2.23096
2.2224
2.22173
2.2247
2.23348
2.25007
2.28434
2.32882
2.41224
2.47065
2.55981
2.61433
3.14793
2.85442
2.66032
2.53526
2.4414
2.38197
2.33207
2.30145
2.27269
2.25637
2.24002
2.23192
2.22326
2.22227
2.22491
2.23455
2.24907
2.29033
2.3337
2.4144
2.47344
2.56295
2.61563
3.1514
2.85852
2.66328
2.53837
2.44203
2.38231
2.33197
2.30098
2.27239
2.25596
2.23971
2.23143
2.2228
2.2218
2.22413
2.23399
2.24829
2.28755
2.32951
2.40889
2.46792
2.55823
2.61151
2.86772
2.54273
2.39318
2.3213
2.26962
2.24086
2.23043
2.21673
2.20133
2.18951
2.19516
2.22983
2.31078
2.40693
2.51939
2.63354
2.75348
2.93398
3.14169
3.40314
3.65761
3.95595
4.30167
2.88307
2.54902
2.39883
2.32619
2.27353
2.24649
2.23379
2.22049
2.20286
2.19084
2.18926
2.20022
2.24662
2.32394
2.42732
2.53436
2.64983
2.82469
3.03301
3.28935
3.55305
3.83525
4.1813
2.88604
2.55495
2.40567
2.33069
2.27993
2.25154
2.23704
2.2233
2.20758
2.19468
2.19161
2.20103
2.23234
2.29353
2.38251
2.47761
2.5842
2.7445
2.94853
3.19354
3.46095
3.73734
4.0561
2.90206
2.56416
2.41313
2.33521
2.28449
2.25739
2.24093
2.22715
2.21113
2.19908
2.1939
2.19506
2.20538
2.24324
2.31654
2.39939
2.49772
2.64465
2.84197
3.07959
3.35387
3.60579
3.90663
2.90658
2.57158
2.42097
2.34126
2.28978
2.26048
2.24348
2.22881
2.21639
2.20421
2.19803
2.19755
2.2052
2.22816
2.28175
2.34899
2.43496
2.56239
2.74711
2.97392
3.24602
3.47622
3.74813
2.92386
2.58359
2.42821
2.34553
2.29489
2.26524
2.246
2.23105
2.21899
2.20911
2.20245
2.20047
2.20308
2.21366
2.24853
2.30112
2.37565
2.48566
2.65184
2.87288
3.13316
3.33348
3.60549
2.92968
2.59287
2.43851
2.35279
2.3011
2.26956
2.24945
2.23311
2.22214
2.21348
2.20704
2.20377
2.20523
2.2123
2.2327
2.27052
2.33077
2.42346
2.56673
2.77944
3.01021
3.20139
3.45931
2.94878
2.60682
2.44652
2.35884
2.30642
2.27327
2.25215
2.23454
2.22399
2.21708
2.21173
2.20695
2.20765
2.21196
2.22465
2.25098
2.29931
2.37768
2.49861
2.69659
2.89882
3.08312
3.32138
2.95582
2.61893
2.45759
2.36608
2.31358
2.27906
2.2554
2.23667
2.22575
2.21946
2.21424
2.20955
2.20974
2.21312
2.22291
2.24291
2.27983
2.34505
2.4476
2.62154
2.79929
2.97072
3.18603
2.97709
2.63429
2.46889
2.37556
2.32044
2.28315
2.25927
2.23919
2.22796
2.22138
2.21683
2.21195
2.2113
2.21442
2.22306
2.24089
2.27333
2.32869
2.41666
2.56753
2.71233
2.88791
3.06345
2.98497
2.6495
2.47943
2.38274
2.32727
2.28953
2.26233
2.24175
2.22927
2.2238
2.21786
2.21391
2.21254
2.21529
2.22286
2.23937
2.26949
2.31914
2.39625
2.52634
2.65021
2.81502
2.95011
3.00809
2.66588
2.4952
2.39559
2.33656
2.29586
2.2676
2.24575
2.2319
2.22531
2.21896
2.21555
2.21333
2.21588
2.22283
2.23864
2.2674
2.31444
2.38569
2.50548
2.60464
2.75283
2.8629
3.0162
2.68334
2.50564
2.40278
2.34263
2.30176
2.27126
2.24906
2.23334
2.22785
2.21989
2.21674
2.21397
2.21626
2.22285
2.23758
2.26466
2.30888
2.37576
2.48562
2.56806
2.70374
2.79782
3.04001
2.70127
2.52518
2.41819
2.35477
2.31058
2.27714
2.25382
2.23604
2.2296
2.22126
2.21764
2.21435
2.21648
2.22265
2.23663
2.26235
2.30425
2.36694
2.46716
2.54533
2.67502
2.75034
3.04882
2.7199
2.53488
2.42562
2.36074
2.31533
2.28159
2.25769
2.23823
2.23202
2.22298
2.21874
2.21499
2.21685
2.22263
2.23604
2.26041
2.30011
2.35955
2.45571
2.52716
2.64755
2.70814
2.82154
2.82527
2.89928
2.95186
3.04387
3.09025
3.12108
3.14158
3.15808
3.17281
3.18516
3.20718
3.2208
3.26672
3.31785
3.39698
3.5086
3.66577
3.88301
4.13482
4.49012
4.83774
5.12026
2.78761
2.76713
2.84956
2.91908
3.00911
3.06078
3.10326
3.13839
3.15227
3.17183
3.18235
3.20207
3.21612
3.26597
3.31634
3.39554
3.50421
3.65926
3.87536
4.11971
4.4644
4.83482
5.11632
2.77128
2.73661
2.8165
2.87864
2.98377
3.04367
3.0822
3.13666
3.14958
3.16872
3.18184
3.20032
3.21468
3.26402
3.31389
3.39352
3.50003
3.65279
3.86514
4.11143
4.44512
4.81578
5.09738
2.75527
2.68145
2.76842
2.84079
2.94715
3.01417
3.05607
3.12198
3.13784
3.16288
3.17782
3.20036
3.21491
3.26431
3.3112
3.39063
3.49568
3.64589
3.85828
4.09886
4.43086
4.80116
5.07199
2.74551
2.64257
2.72011
2.79338
2.91256
2.98755
3.02852
3.10441
3.12583
3.15581
3.17246
3.19565
3.21209
3.25945
3.30842
3.38732
3.49155
3.64017
3.84963
4.09345
4.4091
4.77425
5.05238
2.74438
2.59546
2.67267
2.75074
2.86772
2.95109
2.99371
3.08191
3.10951
3.14224
3.16973
3.19133
3.21021
3.25581
3.30532
3.38286
3.48676
3.63427
3.84411
4.08574
4.39491
4.76255
5.03472
2.75027
2.55756
2.61789
2.69836
2.82482
2.91746
2.96168
3.05658
3.08683
3.12335
3.1673
3.1863
3.2051
3.25011
3.3006
3.378
3.48223
3.62875
3.83694
4.08099
4.38031
4.73845
5.02129
2.75683
2.52113
2.56837
2.64831
2.77161
2.87347
2.92096
3.0253
3.06672
3.10464
3.15614
3.17583
3.20098
3.2432
3.29397
3.37175
3.47647
3.6224
3.83109
4.07546
4.36597
4.72907
5.00173
2.76475
2.49366
2.51504
2.59527
2.7165
2.82814
2.87861
2.99279
3.03835
3.08039
3.13517
3.16179
3.19853
3.23401
3.2853
3.36425
3.46988
3.6157
3.82361
4.07023
4.35433
4.70747
4.99427
2.77245
2.47304
2.46817
2.54061
2.65605
2.77491
2.83214
2.94811
3.0088
3.05393
3.11608
3.14577
3.18452
3.22257
3.27487
3.35491
3.46132
3.60694
3.81396
4.06166
4.33891
4.6977
4.97666
2.78349
2.46278
2.42442
2.48737
2.5908
2.71712
2.77831
2.90462
2.96992
3.02197
3.08653
3.12515
3.17018
3.20808
3.26293
3.343
3.45121
3.59709
3.80403
4.05326
4.32926
4.67413
4.97085
2.79048
2.46139
2.3881
2.43667
2.52659
2.65534
2.72238
2.84707
2.92704