/*--------------------------------*- C++ -*----------------------------------*\
  =========                 |
  \\      /  F ield         | OpenFOAM: The Open Source CFD Toolbox
   \\    /   O peration     | Website:  https://openfoam.org
    \\  /    A nd           | Version:  7
     \\/     M anipulation  |
\*---------------------------------------------------------------------------*/
FoamFile
{
    version     2.0;
    format      ascii;
    class       volScalarField;
    location    "50";
    object      p;
}
// * * * * * * * * * * * * * * * * * * * * * * * * * * * * * * * * * * * * * //

dimensions      [0 2 -2 0 0 0 0];

internalField   nonuniform List<scalar> 
12842
(
-0.00948659
-0.00588002
0.00320849
0.015197
0.0288883
0.0447817
0.0690922
0.114211
0.197493
0.3405
0.568399
0.908595
1.38831
2.03121
2.85291
3.85522
5.02196
6.31769
7.69035
9.07739
10.4175
11.6551
12.7599
-0.0210575
-0.023602
-0.0248611
-0.0260705
-0.0340923
-0.0518935
-0.074845
-0.0918883
-0.0868259
-0.0389063
0.0766194
0.287296
0.621547
1.10622
1.76286
2.60194
3.61771
4.78468
6.05788
7.37721
8.67968
9.90297
11.012
-0.0267299
-0.0378798
-0.0496274
-0.063657
-0.0931808
-0.144155
-0.212911
-0.289279
-0.357886
-0.398579
-0.387107
-0.296437
-0.0981631
0.236144
0.732184
1.40746
2.26525
3.28899
4.44066
5.66318
6.8942
8.06625
9.14427
-0.0286842
-0.0512446
-0.0729495
-0.0987539
-0.149381
-0.232713
-0.345456
-0.478122
-0.615935
-0.739209
-0.824501
-0.846279
-0.777705
-0.59046
-0.256169
0.248747
0.936174
1.79863
2.80577
3.90486
5.03632
6.12919
7.15185
-0.0291631
-0.0640065
-0.0950416
-0.130768
-0.201831
-0.316126
-0.470423
-0.656003
-0.858576
-1.05897
-1.23515
-1.36448
-1.42347
-1.38559
-1.22081
-0.899587
-0.400682
0.278744
1.11784
2.06986
3.08009
4.07429
5.0267
-0.0294146
-0.0756315
-0.115243
-0.158044
-0.248526
-0.391184
-0.583293
-0.817157
-1.07887
-1.34997
-1.61063
-1.84273
-2.02794
-2.14304
-2.15696
-2.0339
-1.7421
-1.26689
-0.617727
0.16593
1.03555
1.91347
2.78083
-0.029866
-0.0857817
-0.132617
-0.179031
-0.287699
-0.454731
-0.679681
-0.955966
-1.26988
-1.60389
-1.94124
-2.27007
-2.57888
-2.84909
-3.04906
-3.13641
-3.06782
-2.81575
-2.37689
-1.7829
-1.07467
-0.334146
0.429891
-0.0304086
-0.0942934
-0.146387
-0.193326
-0.31879
-0.505084
-0.7573
-1.06965
-1.42859
-1.81794
-2.22479
-2.64483
-3.07438
-3.50033
-3.89063
-4.1965
-4.36267
-4.34884
-4.1382
-3.75492
-3.23035
-2.6517
-2.01189
-0.0314459
-0.101179
-0.15492
-0.199661
-0.338745
-0.536931
-0.808286
-1.14632
-1.53724
-1.96608
-2.42392
-2.91439
-3.44158
-3.99788
-4.55096
-5.04658
-5.41905
-5.61782
-5.61408
-5.42731
-5.07643
-4.66067
-4.1436
-0.0325238
-0.107502
-0.159448
-0.202502
-0.353515
-0.559888
-0.846572
-1.20479
-1.62027
-2.07898
-2.57569
-3.12112
-3.72599
-4.38731
-5.07243
-5.72317
-6.26614
-6.64368
-6.81833
-6.80591
-6.61552
-6.34907
-5.95932
-0.0342727
-0.112557
-0.160191
-0.204133
-0.36632
-0.579876
-0.881849
-1.25986
-1.69945
-2.18772
-2.72325
-3.32371
-4.00583
-4.7708
-5.58579
-6.38993
-7.10406
-7.66565
-8.02993
-8.20929
-8.20267
-8.11081
-7.87675
-0.0367385
-0.116178
-0.157684
-0.205231
-0.376786
-0.596697
-0.913624
-1.31063
-1.77354
-2.29075
-2.86488
-3.52023
-4.27902
-5.14632
-6.08951
-7.04651
-7.93437
-8.6876
-9.25503
-9.64535
-9.84643
-9.95497
-9.90254
-0.039808
-0.118319
-0.153168
-0.206356
-0.384739
-0.610311
-0.94139
-1.35605
-1.84085
-2.3856
-2.99701
-3.70579
-4.5393
-5.50655
-6.57598
-7.68594
-8.75143
-9.70553
-10.4909
-11.1118
-11.5436
-11.8766
-12.0313
-0.0431482
-0.118803
-0.147946
-0.207794
-0.390394
-0.621241
-0.965446
-1.39629
-1.90138
-2.47196
-3.11882
-3.8788
-4.78415
-5.84821
-7.04148
-8.30447
-9.55172
-10.716
-11.7335
-12.6031
-13.2868
-13.8655
-14.2509
-0.0463234
-0.1175
-0.143007
-0.209468
-0.3941
-0.630151
-0.986429
-1.43211
-1.95605
-2.55091
-3.23142
-4.04025
-5.01443
-6.17211
-7.48698
-8.90336
-10.3366
-11.7199
-12.9826
-14.117
-15.0705
-15.9125
-16.5477
-0.0489826
-0.114586
-0.139021
-0.211125
-0.396294
-0.637662
-1.00502
-1.46445
-2.00608
-2.62393
-3.3365
-4.19204
-5.23229
-6.48073
-7.91537
-9.48575
-11.109
-12.7188
-14.237
-15.6482
-16.8843
-18.0009
-18.8982
-0.0509422
-0.110523
-0.13634
-0.212534
-0.397463
-0.644286
-1.02182
-1.49414
-2.05254
-2.69232
-3.4355
-4.33567
-5.4393
-6.77576
-8.3284
-10.053
-11.8691
-13.7103
-15.4903
-17.1843
-18.7084
-20.1028
-21.2659
-0.0520856
-0.105919
-0.13501
-0.21352
-0.398008
-0.650308
-1.03717
-1.52168
-2.09601
-2.75665
-3.52881
-4.47119
-5.63506
-7.05619
-8.72415
-10.6018
-12.6108
-14.6844
-16.7263
-18.7013
-20.5099
-22.175
-23.5968
-0.0523478
-0.101363
-0.134844
-0.214011
-0.398215
-0.655827
-1.05123
-1.54724
-2.13665
-2.81692
-3.61605
-4.59765
-5.81778
-7.31904
-9.09789
-11.1246
-13.3227
-15.6236
-17.92
-20.165
-22.2431
-24.1601
-25.8203
-0.0517199
-0.097323
-0.135531
-0.213988
-0.398221
-0.660801
-1.06402
-1.57088
-2.17447
-2.873
-3.69674
-4.71397
-5.98546
-7.56095
-9.44408
-11.6125
-13.9908
-16.5074
-19.0418
-21.5344
-23.8548
-25.9912
-27.8555
-0.0502406
-0.0941037
-0.136755
-0.213555
-0.398115
-0.66514
-1.07544
-1.59252
-2.20936
-2.92473
-3.77056
-4.81947
-6.13672
-7.77915
-9.75748
-12.0563
-14.6
-17.3121
-20.0579
-22.7639
-25.2866
-27.5972
-29.6176
-0.0480315
-0.0918129
-0.138182
-0.212645
-0.397757
-0.668751
-1.08564
-1.61246
-2.24173
-2.97242
-3.83751
-4.91367
-6.27023
-7.97079
-10.0325
-12.4458
-15.1336
-18.0128
-20.9332
-23.8068
-26.4812
-28.9123
-31.0335
-0.0451845
-0.0904355
-0.139647
-0.211549
-0.397236
-0.671455
-1.09426
-1.63027
-2.27133
-3.01633
-3.89847
-4.99791
-6.38717
-8.13576
-10.2661
-12.7729
-15.5764
-18.5854
-21.6342
-24.6196
-27.3852
-29.8754
-32.0347
-0.0422657
-0.0899019
-0.14013
-0.209398
-0.395987
-0.673421
-1.10186
-1.64598
-2.2964
-3.05188
-3.9456
-5.06117
-6.47372
-8.25775
-10.4394
-13.0162
-15.9037
-19.0014
-22.1287
-25.1674
-27.9608
-30.4466
-32.5795
-0.038852
-0.0897844
-0.140192
-0.207902
-0.396085
-0.677071
-1.11085
-1.66187
-2.31936
-3.0821
-3.98323
-5.10945
-6.53776
-8.34586
-10.5611
-13.18
-16.1112
-19.2433
-22.3843
-25.4023
-28.1462
-30.5559
-32.6019
-0.0341153
-0.0894724
-0.139888
-0.207472
-0.398623
-0.684609
-1.12526
-1.68451
-2.35012
-3.12094
-4.02971
-5.16555
-6.60541
-8.42743
-10.6563
-13.2837
-16.2103
-19.3147
-22.3993
-25.3251
-27.9529
-30.2312
-32.1477
-0.0289702
-0.089364
-0.13992
-0.208763
-0.403939
-0.695655
-1.14362
-1.71109
-2.38446
-3.16289
-4.07836
-5.22166
-6.66772
-8.49241
-10.7141
-13.3172
-16.194
-19.2158
-22.1862
-24.9667
-27.4334
-29.5454
-31.3059
-0.0251137
-0.0901007
-0.140999
-0.211874
-0.411453
-0.7088
-1.16347
-1.73791
-2.41735
-3.20145
-4.12114
-5.26822
-6.71374
-8.52908
-10.7232
-13.2715
-16.059
-18.9521
-21.7626
-24.3591
-26.6351
-28.5606
-30.1511
-0.0231516
-0.0917667
-0.143129
-0.216326
-0.420133
-0.722479
-1.18268
-1.76245
-2.44599
-3.23368
-4.15496
-5.30198
-6.74014
-8.53429
-10.6814
-13.1468
-15.8093
-18.5345
-21.1478
-23.5308
-25.5962
-27.3239
-28.739
-0.0226034
-0.0939597
-0.145789
-0.221288
-0.428845
-0.735351
-1.19984
-1.78348
-2.46957
-3.25929
-4.18015
-5.32381
-6.74821
-8.50989
-10.5915
-12.9477
-15.453
-17.9767
-20.3625
-22.5099
-24.3515
-25.8766
-27.1167
-0.022717
-0.0961908
-0.148384
-0.226002
-0.436703
-0.746536
-1.21426
-1.8007
-2.48838
-3.27924
-4.19825
-5.33579
-6.74048
-8.45905
-10.4579
-12.6807
-15.0005
-17.2947
-19.4295
-21.3257
-22.9361
-24.2582
-25.3265
-0.0229543
-0.0981476
-0.150551
-0.230018
-0.443279
-0.75575
-1.22596
-1.8146
-2.50342
-3.29497
-4.21107
-5.33989
-6.71912
-8.38444
-10.2846
-12.3525
-14.4627
-16.5053
-18.3723
-20.0073
-21.3829
-22.5035
-23.4033
-0.0230308
-0.0996985
-0.152164
-0.233241
-0.448591
-0.763237
-1.23553
-1.82619
-2.51611
-3.30821
-4.2204
-5.33793
-6.68604
-8.28859
-10.0757
-11.9705
-13.8518
-15.6262
-17.2141
-18.5822
-19.721
-20.6424
-21.3773
-0.0228517
-0.100846
-0.153284
-0.235791
-0.452924
-0.769519
-1.24381
-1.83663
-2.52785
-3.32044
-4.22768
-5.33119
-6.64254
-8.17345
-9.83518
-11.5422
-13.1798
-14.6744
-15.9762
-17.0746
-17.9766
-18.7014
-19.2757
-0.022415
-0.101647
-0.154044
-0.237893
-0.456653
-0.775171
-1.2516
-1.84688
-2.53971
-3.33269
-4.23379
-5.32048
-6.58967
-8.04104
-9.56724
-11.0754
-12.459
-13.6666
-14.6784
-15.5075
-16.1749
-16.7056
-17.1237
-0.0217739
-0.102195
-0.154608
-0.239771
-0.460121
-0.780657
-1.25946
-1.85755
-2.55224
-3.34538
-4.239
-5.30604
-6.52807
-7.89317
-9.27608
-10.578
-11.7016
-12.6192
-13.3404
-13.9022
-14.34
-14.6802
-14.9467
-0.0209839
-0.102573
-0.155112
-0.241612
-0.463581
-0.786288
-1.26771
-1.86891
-2.56556
-3.35845
-4.24318
-5.28791
-6.45849
-7.73208
-8.96666
-10.0587
-10.9206
-11.5491
-11.982
-12.2799
-12.4928
-12.6478
-12.7656
-0.0201003
-0.102862
-0.155668
-0.243535
-0.467185
-0.792209
-1.27644
-1.8809
-2.57946
-3.37155
-4.24593
-5.26592
-6.38153
-7.55996
-8.64384
-9.52642
-10.1289
-10.4733
-10.6236
-10.6598
-10.6493
-10.6239
-10.593
-0.0191529
-0.103119
-0.156336
-0.245607
-0.471001
-0.798457
-1.28561
-1.89336
-2.5936
-3.38422
-4.24685
-5.24002
-6.29811
-7.37942
-8.31309
-8.99066
-9.34047
-9.40888
-9.28515
-9.06231
-8.82704
-8.62539
-8.44589
-0.0181639
-0.103391
-0.157151
-0.24784
-0.47503
-0.804984
-1.29508
-1.906
-2.6076
-3.39599
-4.24553
-5.21014
-6.20901
-7.19286
-7.97945
-8.46046
-8.56896
-8.37335
-7.98724
-7.51091
-7.0526
-6.67714
-6.34821
-0.0171343
-0.103705
-0.15811
-0.250227
-0.479244
-0.811717
-1.30471
-1.91861
-2.62113
-3.40654
-4.24178
-5.17645
-6.11532
-7.00294
-7.64823
-7.94512
-7.82876
-7.38545
-6.75217
-6.03427
-5.35967
-4.81205
-4.3345
-0.0160679
-0.10408
-0.159201
-0.252732
-0.483596
-0.818571
-1.31435
-1.93097
-2.63397
-3.41562
-4.23549
-5.13914
-6.01796
-6.81196
-7.32404
-7.453
-7.13372
-6.46478
-5.60495
-4.66419
-3.78658
-3.07271
-2.45259
-0.014958
-0.104522
-0.160392
-0.255329
-0.488047
-0.825482
-1.32391
-1.94298
-2.646
-3.42319
-4.22678
-5.09861
-5.91809
-6.62235
-7.01155
-6.99231
-6.49792
-5.63239
-4.57301
-3.43552
-2.37337
-1.50478
-0.751639
-0.0138075
-0.105035
-0.161661
-0.257983
-0.492557
-0.832396
-1.33334
-1.95458
-2.6572
-3.42927
-4.2158
-5.05523
-5.81667
-6.43611
-6.71459
-6.56984
-5.93401
-4.90877
-3.68436
-2.38171
-1.15906
-0.148364
0.738108
-0.0126163
-0.105615
-0.162975
-0.260677
-0.497107
-0.839292
-1.34261
-1.96577
-2.66762
-3.43399
-4.20287
-5.00955
-5.71482
-6.25524
-6.43692
-6.19161
-5.45356
-4.31359
-2.9649
-1.53321
-0.179301
0.960348
1.99028
-0.0113891
-0.106256
-0.164316
-0.263391
-0.50168
-0.846156
-1.35172
-1.97659
-2.67733
-3.43751
-4.18825
-4.96199
-5.61343
-6.08122
-6.18132
-5.86153
-5.06527
-3.86339
-2.43797
-0.919817
0.520905
1.75659
2.92113
-0.0101498
-0.106957
-0.165669
-0.26613
-0.506285
-0.853011
-1.36074
-1.98712
-2.68651
-3.44008
-4.17235
-4.91311
-5.51348
-5.9154
-5.95041
-5.58212
-4.77547
-3.57214
-2.12647
-0.580168
0.877042
2.13946
3.39244
-0.00887718
-0.107703
-0.16702
-0.268889
-0.510929
-0.859885
-1.3697
-1.99749
-2.69533
-3.44195
-4.15556
-4.86337
-5.41575
-5.75844
-5.74588
-5.35331
-4.58644
-3.44997
-2.0552
-0.565365
0.809511
1.99365
3.24563
-0.00781705
-0.108559
-0.168366
-0.271641
-0.51557
-0.866775
-1.37873
-2.00795
-2.70429
-3.44396
-4.13941
-4.81519
-5.32421
-5.61486
-5.57335
-5.17557
-4.49277
-3.49042
-2.22285
-0.884737
0.319704
1.32164
2.46223
-0.00664854
-0.109406
-0.169625
-0.27435
-0.520283
-0.873922
-1.38834
-2.01943
-2.71491
-3.4484
-4.12755
-4.77387
-5.24651
-5.49238
-5.43908
-5.04415
-4.46677
-3.6401
-2.54573
-1.41808
-0.429189
0.323742
1.24322
-0.00500928
-0.110044
-0.170522
-0.276888
-0.525074
-0.881624
-1.39927
-2.03318
-2.72897
-3.45743
-4.12246
-4.74163
-5.18348
-5.38765
-5.33064
-4.93291
-4.44865
-3.80006
-2.88712
-1.97218
-1.19245
-0.650824
0.0657955
-0.00295318
-0.110555
-0.171155
-0.279437
-0.530249
-0.89038
-1.41222
-2.05005
-2.74719
-3.47131
-4.12315
-4.71529
-5.12752
-5.2871
-5.22329
-4.8089
-4.38252
-3.88996
-3.14882
-2.40164
-1.78317
-1.38387
-0.86302
-0.000766816
-0.111123
-0.171784
-0.282318
-0.536188
-0.900624
-1.42759
-2.07023
-2.76934
-3.48901
-4.12728
-4.69076
-5.07114
-5.17992
-5.09812
-4.65187
-4.23735
-3.86276
-3.26792
-2.61653
-2.10065
-1.83845
-1.4882
0.00137979
-0.111847
-0.172608
-0.285752
-0.543153
-0.912607
-1.44552
-2.09356
-2.7947
-3.50896
-4.13201
-4.66369
-5.00731
-5.05713
-4.94089
-4.44923
-3.99915
-3.69751
-3.21416
-2.60033
-2.13173
-1.97288
-1.63659
0.00348205
-0.112682
-0.173643
-0.289729
-0.551042
-0.926018
-1.46531
-2.1188
-2.82132
-3.52855
-4.13395
-4.63027
-4.93119
-4.91409
-4.74478
-4.19588
-3.66786
-3.3892
-2.97249
-2.36635
-1.87199
-1.70693
-1.26597
0.00551102
-0.113616
-0.174911
-0.294227
-0.559772
-0.940651
-1.48653
-2.14517
-2.8479
-3.54577
-4.13011
-4.58641
-4.83687
-4.74354
-4.49939
-3.87856
-3.23107
-2.92172
-2.53061
-1.93529
-1.36082
-1.14604
-0.664572
0.00760703
-0.114519
-0.176271
-0.299057
-0.569105
-0.956159
-1.5087
-2.17202
-2.87372
-3.56003
-4.12014
-4.53235
-4.72555
-4.54878
-4.21125
-3.50579
-2.71439
-2.32748
-1.90146
-1.2998
-0.640263
-0.373628
0.0937156
0.0096645
-0.11544
-0.177699
-0.304081
-0.578575
-0.971598
-1.53012
-2.19672
-2.89506
-3.56657
-4.0983
-4.46169
-4.59056
-4.32363
-3.87535
-3.06972
-2.10769
-1.60168
-1.13391
-0.57461
0.138269
0.469809
0.840451
0.0115055
-0.116489
-0.179461
-0.309517
-0.588448
-0.987184
-1.55096
-2.21952
-2.91256
-3.56704
-4.06814
-4.38117
-4.44327
-4.08523
-3.51732
-2.60342
-1.45206
-0.781598
-0.235271
0.300075
1.04203
1.37804
1.62165
0.0130974
-0.117652
-0.181533
-0.315236
-0.598516
-1.00262
-1.57097
-2.2404
-2.92683
-3.56321
-4.03321
-4.29686
-4.29355
-3.84794
-3.15984
-2.13806
-0.793016
0.0759292
0.749001
1.31373
2.03754
2.30999
2.42761
0.0145991
-0.118768
-0.183615
-0.320845
-0.608249
-1.01727
-1.58946
-2.25884
-2.93782
-3.55591
-3.99563
-4.21277
-4.1484
-3.62257
-2.82033
-1.69806
-0.170738
0.910891
1.73928
2.36194
3.02025
3.19783
3.21261
0.0161097
-0.119752
-0.185519
-0.326083
-0.617321
-1.03079
-1.60617
-2.27485
-2.94603
-3.54638
-3.95776
-4.13268
-4.01394
-3.41827
-2.51312
-1.30349
0.38108
1.67022
2.65979
3.33829
3.92613
4.00329
3.95962
0.0176466
-0.120612
-0.18722
-0.330943
-0.625763
-1.0433
-1.62146
-2.28915
-2.95278
-3.53676
-3.9227
-4.0609
-3.8963
-3.24386
-2.25187
-0.973955
0.831429
2.30544
3.44795
4.17274
4.71614
4.73572
4.66975
0.0191903
-0.121404
-0.188781
-0.335519
-0.633743
-1.05513
-1.6359
-2.3027
-2.95953
-3.52907
-3.89309
-4.00066
-3.79959
-3.10508
-2.046
-0.724075
1.15755
2.77841
4.05615
4.81306
5.34519
5.38822
5.31592
0.0207325
-0.122166
-0.190259
-0.339929
-0.641459
-1.0666
-1.64999
-2.31628
-2.96732
-3.52455
-3.87022
-3.95297
-3.72436
-3.00236
-1.89739
-0.558302
1.35163
3.06994
4.46168
5.25272
5.74311
5.9047
5.86141
0.0222652
-0.12293
-0.191707
-0.344255
-0.649049
-1.07794
-1.66408
-2.3303
-2.9766
-3.52342
-3.85371
-3.91628
-3.66728
-2.93025
-1.79911
-0.468413
1.42425
3.18584
4.66168
5.49362
5.91153
6.23952
6.2661
0.0237885
-0.123704
-0.193154
-0.348563
-0.656612
-1.08928
-1.67831
-2.34489
-2.98729
-3.52513
-3.84209
-3.88742
-3.62252
-2.87934
-1.73768
-0.435918
1.40147
3.15537
4.67679
5.54847
5.96805
6.40312
6.46254
0.0252952
-0.124502
-0.194623
-0.35288
-0.664184
-1.10065
-1.69269
-2.35993
-2.99899
-3.52866
-3.83324
-3.86243
-3.58326
-2.83846
-1.69623
-0.436378
1.31899
3.02409
4.55859
5.47748
5.97029
6.41437
6.49295
0.026784
-0.125319
-0.19612
-0.357226
-0.671786
-1.11207
-1.70717
-2.37521
-3.01118
-3.53293
-3.82513
-3.83767
-3.54329
-2.79725
-1.65829
-0.444801
1.21466
2.8436
4.37014
5.37256
5.91517
6.33501
6.47049
0.0282472
-0.12616
-0.197653
-0.361595
-0.679396
-1.12347
-1.72161
-2.39047
-3.02333
-3.53694
-3.81602
-3.81024
-3.49783
-2.74759
-1.61032
-0.4397
1.12215
2.66182
4.1595
5.2726
5.87226
6.28578
6.48299
0.0296846
-0.127017
-0.199215
-0.365987
-0.687005
-1.13482
-1.73592
-2.40549
-3.03504
-3.53999
-3.80479
-3.77838
-3.44408
-2.68456
-1.54342
-0.406045
1.06617
2.51589
3.95808
5.16358
5.86654
6.28926
6.5232
0.0310903
-0.127893
-0.200809
-0.370386
-0.694578
-1.14605
-1.74998
-2.42007
-3.04596
-3.54158
-3.7908
-3.74134
-3.38106
-2.60633
-1.45367
-0.336267
1.06035
2.42823
3.79117
5.02344
5.83791
6.26957
6.51364
0.0324656
-0.128779
-0.202427
-0.374789
-0.702105
-1.15714
-1.76372
-2.43408
-3.05593
-3.54152
-3.77395
-3.69932
-3.30944
-2.51392
-1.34178
-0.229959
1.10754
2.40605
3.67888
4.861
5.74413
6.18426
6.42748
0.0338056
-0.129677
-0.20407
-0.379182
-0.709557
-1.16803
-1.77708
-2.44743
-3.06484
-3.53976
-3.75443
-3.65304
-3.23092
-2.41029
-1.212
-0.0926108
1.20161
2.44273
3.62982
4.70513
5.59697
6.04137
6.29236
0.0351125
-0.13058
-0.205731
-0.383564
-0.716933
-1.17871
-1.79002
-2.46007
-3.07267
-3.53642
-3.73266
-3.60365
-3.14787
-2.29966
-1.07094
0.0661812
1.33018
2.52182
3.63536
4.58046
5.42793
5.86935
6.13208
0.0363811
-0.131492
-0.207413
-0.387925
-0.724211
-1.18917
-1.80251
-2.47197
-3.07941
-3.53159
-3.70913
-3.55237
-3.06282
-2.18669
-0.926348
0.234464
1.47714
2.62141
3.67031
4.49138
5.25421
5.68095
5.96497
0.0376132
-0.132405
-0.209111
-0.392269
-0.731397
-1.19938
-1.81453
-2.48311
-3.08509
-3.52547
-3.68433
-3.5004
-2.97824
-2.07595
-0.786042
0.399744
1.62547
2.72018
3.70368
4.42912
5.08696
5.48019
5.79773
0.0388024
-0.133323
-0.21083
-0.396586
-0.738474
-1.20934
-1.82606
-2.49347
-3.08971
-3.51817
-3.65866
-3.44877
-2.89626
-1.97151
-0.657231
0.550247
1.75905
2.80122
3.71244
4.3665
4.9323
5.28342
5.62355
0.0399503
-0.134242
-0.212565
-0.400883
-0.745448
-1.21903
-1.83709
-2.50303
-3.0933
-3.5098
-3.63251
-3.39834
-2.81864
-1.8767
-0.545859
0.676149
1.86464
2.85331
3.69557
4.27676
4.78329
5.10743
5.44303
0.0410495
-0.135166
-0.214323
-0.405152
-0.752305
-1.22845
-1.84758
-2.51176
-3.09584
-3.50044
-3.60611
-3.34973
-2.74667
-1.79399
-0.456448
0.770019
1.93252
2.86746
3.65353
4.16164
4.63287
4.94246
5.25382
0.0421015
-0.136091
-0.2161
-0.409398
-0.75905
-1.23757
-1.85752
-2.51963
-3.09732
-3.49014
-3.57966
-3.30341
-2.68126
-1.72503
-0.391839
0.827343
1.95729
2.83733
3.57825
4.03374
4.47298
4.77252
5.05901
0.0430985
-0.137022
-0.217903
-0.413616
-0.765666
-1.24639
-1.86687
-2.5266
-3.0977
-3.47891
-3.55327
-3.25966
-2.62292
-1.67068
-0.353406
0.846128
1.93698
2.7609
3.45987
3.89124
4.29668
4.58271
4.84528
0.0440424
-0.137955
-0.219727
-0.417809
-0.772159
-1.2549
-1.87561
-2.53264
-3.09698
-3.46676
-3.52701
-3.21867
-2.57189
-1.63107
-0.340985
0.82703
1.87297
2.64125
3.2949
3.71989
4.09449
4.36226
4.59759
0.0449255
-0.138896
-0.221579
-0.42197
-0.77851
-1.26306
-1.88371
-2.53771
-3.09508
-3.45367
-3.5009
-3.18047
-2.52816
-1.60579
-0.353295
0.772609
1.7687
2.48378
3.08825
3.50708
3.85869
4.10786
4.31904
0.0457503
-0.139841
-0.223455
-0.426103
-0.784722
-1.27086
-1.89114
-2.54176
-3.092
-3.43963
-3.47497
-3.14507
-2.49149
-1.59389
-0.387963
0.687298
1.62982
2.29585
2.84946
3.2545
3.58903
3.82495
4.02086
0.0465086
-0.140795
-0.22536
-0.430201
-0.790776
-1.27829
-1.89786
-2.54475
-3.08767
-3.4246
-3.44917
-3.11238
-2.46155
-1.5941
-0.442036
0.57643
1.46306
2.08536
2.58899
2.97398
3.29277
3.52021
3.70732
0.0472037
-0.141753
-0.227291
-0.434266
-0.796674
-1.28533
-1.90385
-2.54663
-3.08205
-3.40856
-3.42347
-3.08229
-2.43784
-1.60485
-0.511932
0.446248
1.27617
1.86075
2.31697
2.68077
2.9806
3.19801
3.38004
0.0478273
-0.142721
-0.229254
-0.438291
-0.802396
-1.29195
-1.90905
-2.54736
-3.0751
-3.39146
-3.39783
-3.05465
-2.41984
-1.62449
-0.594025
0.302928
1.07649
1.62963
2.04283
2.38562
2.66473
2.86924
3.04454
0.0483829
-0.143693
-0.231242
-0.442279
-0.807943
-1.29813
-1.91345
-2.54689
-3.06676
-3.37326
-3.37217
-3.02925
-2.40693
-1.6512
-0.68455
0.152642
0.871004
1.39788
1.77551
2.09604
2.35513
2.54473
2.70895
0.0488614
-0.144675
-0.233262
-0.44622
-0.813293
-1.30385
-1.91699
-2.54516
-3.05697
-3.3539
-3.34643
-3.0059
-2.3985
-1.68326
-0.780226
0.000642042
0.665666
1.16916
1.52042
1.81745
2.05697
2.23065
2.38068
0.0492673
-0.14566
-0.235309
-0.450117
-0.818447
-1.3091
-1.91965
-2.54212
-3.04568
-3.33334
-3.32051
-2.98436
-2.3939
-1.71895
-0.878029
-0.148549
0.465927
0.94675
1.27894
1.55426
1.77301
1.93114
2.06567
0.04959
-0.146655
-0.23739
-0.45396
-0.823381
-1.31383
-1.92138
-2.53772
-3.03283
-3.31152
-3.29433
-2.96442
-2.39259
-1.75684
-0.975743
-0.291815
0.275755
0.733338
1.0512
1.30835
1.50489
1.64806
1.76854
0.0498371
-0.147651
-0.239495
-0.457751
-0.828093
-1.31803
-1.92213
-2.5319
-3.01835
-3.28838
-3.26778
-2.94582
-2.39401
-1.79561
-1.07166
-0.427226
0.0981985
0.532027
0.838189
1.07976
1.25478
1.38404
1.49122
0.0499895
-0.148658
-0.241638
-0.461487
-0.832572
-1.32168
-1.9219
-2.52463
-3.00221
-3.26386
-3.24076
-2.92829
-2.39774
-1.8343
-1.16483
-0.554075
-0.0663338
0.339732
0.638285
0.866987
1.0233
1.14027
1.23498
0.0500923
-0.149653
-0.243797
-0.465152
-0.836786
-1.32471
-1.92053
-2.5157
-2.98418
-3.23779
-3.21311
-2.91168
-2.40366
-1.87259
-1.25578
-0.674841
-0.215173
0.162616
0.455302
0.670458
0.810722
0.916879
1.00074
0.0500813
-0.150675
-0.246044
-0.46887
-0.840933
-1.32741
-1.91833
-2.5053
-2.96412
-3.20956
-3.18367
-2.89427
-2.40999
-1.90867
-1.34272
-0.788738
-0.356122
-0.0332432
0.26812
0.477916
0.610926
0.710821
0.789231
0.0505297
-0.151514
-0.24831
-0.472772
-0.845199
-1.32952
-1.91409
-2.49082
-2.93817
-3.17503
-3.14949
-2.87592
-2.42087
-1.95143
-1.44147
-0.929162
-0.474509
-0.139832
0.14669
0.316156
0.429146
0.519357
0.592689
0.0505316
-0.15263
-0.250797
-0.476332
-0.847933
-1.32791
-1.90288
-2.46559
-2.89827
-3.12542
-3.10206
-2.84926
-2.43075
-2.00086
-1.55357
-1.12003
-0.736531
-0.453599
-0.183143
-0.00316296
0.12076
0.218292
0.295633
0.0499314
-0.154237
-0.254021
-0.480008
-0.8496
-1.32278
-1.88463
-2.42946
-2.8444
-3.06072
-3.04037
-2.80976
-2.42864
-2.03724
-1.64599
-1.28964
-0.983136
-0.747836
-0.501979
-0.319501
-0.18821
-0.0868052
-0.00486113
0.0487779
-0.156252
-0.257925
-0.483788
-0.850246
-1.31439
-1.85989
-2.38322
-2.77744
-2.98123
-2.96331
-2.75388
-2.40769
-2.04901
-1.69777
-1.38585
-1.1111
-0.89729
-0.685907
-0.524778
-0.405949
-0.310535
-0.229337
0.0475649
-0.158168
-0.261771
-0.486836
-0.848726
-1.30132
-1.82697
-2.32499
-2.69519
-2.88416
-2.86745
-2.67778
-2.36444
-2.03421
-1.70991
-1.41869
-1.15479
-0.954327
-0.775688
-0.639779
-0.539634
-0.453278
-0.377906
0.046455
-0.159703
-0.265106
-0.488523
-0.844081
-1.28225
-1.78416
-2.2526
-2.59498
-2.76615
-2.74863
-2.5768
-2.29471
-1.99182
-1.69127
-1.41891
-1.17079
-0.983944
-0.828289
-0.707885
-0.62119
-0.544768
-0.476321
0.0451961
-0.160956
-0.268016
-0.488857
-0.836188
-1.25695
-1.73117
-2.16584
-2.47653
-2.62645
-2.60507
-2.44784
-2.19466
-1.91988
-1.64656
-1.39992
-1.17546
-1.00283
-0.862749
-0.750328
-0.673494
-0.605396
-0.544805
0.0434329
-0.162175
-0.270806
-0.488106
-0.825336
-1.22586
-1.66884
-2.06613
-2.34189
-2.46743
-2.43886
-2.29236
-2.06513
-1.81943
-1.57723
-1.36102
-1.16445
-1.0081
-0.88262
-0.779395
-0.710024
-0.649302
-0.595425
0.0409898
-0.163505
-0.273659
-0.486452
-0.81175
-1.18944
-1.5982
-1.9555
-2.19437
-2.29373
-2.25589
-2.11744
-1.91399
-1.69792
-1.48873
-1.30475
-1.13893
-1.00321
-0.894354
-0.802464
-0.738193
-0.684099
-0.635632
0.0378139
-0.164979
-0.276581
-0.483819
-0.795334
-1.14783
-1.52006
-1.83599
-2.03778
-2.11142
-2.06478
-1.93434
-1.75413
-1.56784
-1.39171
-1.23958
-1.105
-0.992452
-0.901306
-0.82305
-0.763768
-0.714931
-0.670871
0.0339472
-0.166532
-0.279407
-0.479935
-0.77576
-1.10095
-1.4351
-1.70967
-1.87619
-1.9271
-1.87491
-1.75481
-1.59828
-1.44099
-1.29587
-1.1726
-1.0662
-0.976023
-0.901551
-0.837515
-0.785595
-0.742147
-0.70209
0.0294187
-0.168074
-0.281886
-0.474386
-0.752572
-1.04868
-1.34415
-1.57886
-1.71382
-1.74694
-1.69394
-1.58717
-1.45421
-1.32341
-1.20506
-1.10547
-1.02164
-0.950712
-0.890795
-0.839265
-0.79597
-0.758697
-0.723578
0.0242891
-0.169461
-0.283676
-0.466714
-0.725364
-0.991171
-1.24842
-1.44618
-1.55451
-1.57547
-1.52602
-1.43426
-1.32314
-1.21471
-1.11758
-1.03587
-0.968191
-0.911895
-0.863822
-0.821977
-0.786592
-0.755762
-0.726485
0.0185937
-0.170545
-0.284402
-0.456449
-0.693885
-0.928905
-1.14955
-1.31428
-1.40119
-1.41476
-1.37135
-1.29423
-1.20183
-1.11113
-1.02984
-0.960936
-0.903976
-0.857369
-0.81804
-0.783255
-0.753641
-0.728237
-0.704289
0.0124192
-0.17111
-0.283629
-0.443203
-0.658146
-0.862777
-1.04941
-1.18541
-1.2554
-1.26463
-1.22766
-1.1633
-1.08622
-1.00944
-0.940004
-0.880436
-0.830656
-0.789919
-0.756176
-0.726326
-0.700175
-0.677965
-0.657825
0.00584806
-0.170942
-0.280934
-0.426694
-0.61845
-0.79398
-0.949826
-1.06118
-1.11747
-1.12371
-1.09238
-1.03864
-0.974298
-0.909274
-0.849702
-0.797978
-0.754149
-0.71778
-0.687846
-0.661861
-0.638575
-0.618332
-0.600719
-0.000949463
-0.169757
-0.275889
-0.406821
-0.575375
-0.723817
-0.852312
-0.94249
-0.987192
-0.990975
-0.964379
-0.919756
-0.866666
-0.812562
-0.762363
-0.718292
-0.680461
-0.648464
-0.621792
-0.598982
-0.578525
-0.560073
-0.543977
-0.00779689
-0.167293
-0.268155
-0.383654
-0.529662
-0.653487
-0.757959
-0.829865
-0.864628
-0.866465
-0.844248
-0.807983
-0.765343
-0.721808
-0.680999
-0.644743
-0.613239
-0.586069
-0.562871
-0.542936
-0.525202
-0.508886
-0.494174
-0.014417
-0.163244
-0.25747
-0.35743
-0.482084
-0.583945
-0.667511
-0.723828
-0.750344
-0.751077
-0.733354
-0.70507
-0.672242
-0.638841
-0.607329
-0.57902
-0.554133
-0.532305
-0.513181
-0.496413
-0.48148
-0.467722
-0.454999
-0.0205416
-0.157373
-0.243718
-0.328474
-0.43331
-0.515857
-0.581479
-0.624852
-0.644938
-0.645502
-0.632389
-0.611602
-0.587698
-0.563531
-0.540692
-0.519986
-0.501571
-0.485172
-0.470457
-0.457196
-0.445192
-0.434118
-0.42378
-0.0258236
-0.149467
-0.226898
-0.297141
-0.383859
-0.449643
-0.500146
-0.533052
-0.548329
-0.549283
-0.540436
-0.52617
-0.509826
-0.493431
-0.478004
-0.463961
-0.451358
-0.439986
-0.429574
-0.419924
-0.410962
-0.402595
-0.394755
-0.0299594
-0.139426
-0.207153
-0.263794
-0.334138
-0.385587
-0.423558
-0.44809
-0.459673
-0.461029
-0.455558
-0.446384
-0.435867
-0.425436
-0.41575
-0.406993
-0.399123
-0.391967
-0.385316
-0.379007
-0.372979
-0.367234
-0.361805
-0.0326633
-0.127222
-0.184761
-0.228856
-0.284617
-0.32405
-0.351829
-0.369689
-0.378352
-0.379918
-0.376897
-0.371487
-0.365302
-0.359314
-0.353941
-0.349241
-0.345107
-0.34137
-0.337867
-0.334468
-0.331114
-0.327811
-0.324637
-0.0337554
-0.113027
-0.160198
-0.192983
-0.23606
-0.265772
-0.285579
-0.298298
-0.304776
-0.306505
-0.305282
-0.302628
-0.299609
-0.29684
-0.294568
-0.292781
-0.291349
-0.290115
-0.288942
-0.287735
-0.286451
-0.285084
-0.283722
-0.0331903
-0.0972193
-0.13425
-0.157187
-0.18966
-0.211946
-0.225936
-0.234945
-0.239945
-0.241879
-0.241965
-0.241227
-0.24036
-0.239726
-0.239456
-0.239504
-0.239754
-0.240069
-0.240346
-0.240513
-0.240551
-0.24045
-0.240297
-0.0310808
-0.0804857
-0.108039
-0.122819
-0.146804
-0.163824
-0.173934
-0.180492
-0.184606
-0.186846
-0.187936
-0.188564
-0.189163
-0.189956
-0.190982
-0.192193
-0.193483
-0.194755
-0.195921
-0.19694
-0.197797
-0.198495
-0.199102
-0.0277887
-0.0637702
-0.0829316
-0.0912407
-0.108622
-0.122096
-0.12986
-0.134875
-0.138453
-0.140958
-0.142745
-0.144232
-0.145693
-0.147262
-0.148941
-0.150684
-0.152408
-0.154046
-0.155539
-0.156865
-0.158019
-0.159012
-0.159901
-0.0238415
-0.0480974
-0.060088
-0.0632565
-0.0752766
-0.086211
-0.0925574
-0.0965142
-0.0996083
-0.102196
-0.104386
-0.106376
-0.108323
-0.110305
-0.112309
-0.114296
-0.116202
-0.117983
-0.1196
-0.121043
-0.122316
-0.123432
-0.124434
-0.0198455
-0.0345328
-0.0405701
-0.039568
-0.0469822
-0.0559151
-0.0614794
-0.064738
-0.0673026
-0.069675
-0.0718405
-0.073831
-0.0757022
-0.0775095
-0.0792459
-0.080896
-0.0824228
-0.0838099
-0.0850402
-0.0861201
-0.0870585
-0.0878763
-0.0886026
-0.0157328
-0.0227618
-0.0237657
-0.0186379
-0.0210212
-0.0273946
-0.0320991
-0.0349
-0.037355
-0.0402108
-0.0434113
-0.0467989
-0.0502528
-0.053722
-0.0571321
-0.0604299
-0.0635494
-0.0664575
-0.0691218
-0.0715396
-0.0737092
-0.0756484
-0.0773723
-0.0092036
-0.0140263
-0.0124064
-0.00692516
-0.00597076
-0.00906855
-0.0115313
-0.0118013
-0.0108264
-0.00963876
-0.00850175
-0.00740709
-0.0062824
-0.00514452
-0.00398651
-0.00283763
-0.00169279
-0.000577545
0.000506816
0.00153385
0.00249788
0.00337373
0.00415736
0.0716628
-0.000918493
0.0476115
0.112572
0.205163
0.343607
0.540938
0.809455
1.16265
1.61409
2.18847
2.92138
3.86092
5.0528
6.5255
8.27245
10.2476
12.3687
14.534
16.6346
18.5878
20.3135
21.8243
0.0674325
0.0137195
0.0476492
0.115013
0.207104
0.342222
0.535962
0.801874
1.15531
1.61312
2.20043
2.95098
3.90695
5.10721
6.57374
8.2964
10.228
12.2881
14.3778
16.3935
18.2559
19.894
21.3172
0.0618149
0.0281354
0.0503788
0.114862
0.20464
0.333732
0.519307
0.776539
1.12241
1.57647
2.16437
2.91803
3.87416
5.06496
6.50628
8.18481
10.0532
12.034
14.0329
15.953
17.7191
19.2683
20.6071
0.0545709
0.0398537
0.0554813
0.112912
0.1975
0.317727
0.490505
0.732432
1.06182
1.5001
2.07341
2.81213
3.74849
4.90903
6.30457
7.91943
9.70718
11.5943
13.4919
15.31
16.9783
18.4412
19.7022
0.0457076
0.0462856
0.0607333
0.109091
0.18501
0.293044
0.448201
0.667705
0.970816
1.38005
1.92183
2.62529
3.51944
4.62664
5.95441
7.48618
9.17786
10.9608
12.7526
14.4694
16.0449
17.4288
18.6212
0.0352201
0.0451706
0.0617436
0.100983
0.164786
0.256584
0.38877
0.578173
0.84434
1.21019
1.70196
2.34782
3.17459
4.20234
5.43724
6.86409
8.4429
10.1117
11.7951
13.416
14.9107
16.2316
17.3718
0.0225891
0.0349084
0.0531103
0.0840634
0.133311
0.204706
0.308331
0.459742
0.678121
0.986095
1.4094
1.97529
2.70945
3.6312
4.74756
6.04673
7.495
9.03857
10.6104
12.1401
13.567
14.8448
15.9602
0.00699069
0.016475
0.0331601
0.056462
0.0901153
0.137489
0.206798
0.312078
0.471788
0.70812
1.04642
1.51363
2.13541
2.93203
3.91326
5.07246
6.38335
7.80069
9.26518
10.7116
12.0803
13.3232
14.4199
0.0894187
-0.103245
0.0221574
0.0152007
0.120561
0.251184
0.435432
0.68925
0.982182
1.2989
1.62584
1.97485
2.38374
2.88635
3.50071
4.20855
4.96355
5.69746
6.35206
6.88569
7.28158
7.56219
7.72576
0.0879558
-0.102173
0.020249
0.016272
0.121417
0.254038
0.44072
0.699073
1.00106
1.333
1.68895
2.08142
2.55495
3.14627
3.87862
4.73761
5.67948
6.6335
7.53447
8.32552
8.97807
9.49649
9.87148
0.0866114
-0.0997919
0.0181475
0.016154
0.120337
0.253528
0.440994
0.701981
1.01121
1.35702
1.74035
2.17528
2.71127
3.38774
4.23157
5.23189
6.34774
7.50776
8.64215
9.68173
10.5877
11.3451
11.9413
0.085368
-0.0955355
0.0175006
0.0163235
0.119155
0.251771
0.438651