/*--------------------------------*- C++ -*----------------------------------*\
  =========                 |
  \\      /  F ield         | OpenFOAM: The Open Source CFD Toolbox
   \\    /   O peration     | Website:  https://openfoam.org
    \\  /    A nd           | Version:  7
     \\/     M anipulation  |
\*---------------------------------------------------------------------------*/
FoamFile
{
    version     2.0;
    format      ascii;
    class       surfaceScalarField;
    location    "50";
    object      phi;
}
// * * * * * * * * * * * * * * * * * * * * * * * * * * * * * * * * * * * * * //

dimensions      [0 3 -1 0 0 0 0];

internalField   nonuniform List<scalar> 
25449
(
69.7139
39.6753
-14.6994
51.6629
29.1909
-11.1399
38.4868
21.6188
-8.44271
28.7918
16.0967
-6.40166
21.6124
12.0375
-4.858
16.2687
9.0345
-3.69079
12.2754
6.80149
-2.80825
9.28205
5.1342
-2.14084
7.03278
3.88518
-1.63591
5.33949
2.94692
-1.25363
4.06295
2.24042
-0.963876
3.09959
1.70724
-0.743881
2.37207
1.30394
-0.57642
1.82246
0.998094
-0.448479
1.40724
0.765461
-0.350245
1.09367
0.587936
-0.274359
0.857001
0.452
-0.215334
0.678532
0.347577
-0.169108
0.544073
0.267157
-0.132698
0.442852
0.205128
-0.103908
0.3667
0.157266
-0.0811149
0.309419
0.120367
-0.0630861
0.0919289
-0.0488637
0.266353
55.4767
59.0688
41.3263
43.3412
30.9176
32.0275
23.2114
23.8029
17.4765
17.7723
13.1914
13.3196
9.97943
10.0135
7.56583
7.5478
5.74874
5.70227
4.37877
4.31689
3.34478
3.27441
2.56376
2.48825
1.97355
1.89416
1.52744
1.4442
1.1903
1.1026
0.93564
0.8426
0.743429
0.644211
0.598504
0.492502
0.48935
0.376311
0.407217
0.28726
0.345463
0.219021
0.299039
0.166791
0.126809
0.264159
43.1232
73.6377
32.3491
54.1152
24.3384
40.0382
18.3573
29.7841
13.8766
22.253
10.5111
16.685
7.97819
12.5464
6.06883
9.45716
4.6278
7.1433
3.53926
5.40543
2.71647
4.09721
2.09427
3.11045
1.62365
2.36477
1.26769
1.80016
0.998535
1.37176
0.79515
1.04599
0.641608
0.797752
0.525831
0.60828
0.438634
0.463509
0.373029
0.352865
0.323708
0.268343
0.286634
0.203865
0.154665
0.258778
33.1505
84.2756
25.1177
62.148
19.0477
46.1082
14.4589
34.3729
10.9881
25.7238
8.36186
19.3112
6.37402
14.5343
4.86894
10.9622
3.72915
8.28308
2.86592
6.26866
2.21211
4.75101
1.71693
3.60564
1.34192
2.73979
1.05798
2.0841
0.843095
1.58664
0.680604
1.20848
0.557862
0.920494
0.465262
0.70088
0.39549
0.53328
0.342974
0.405382
0.303473
0.307844
0.273766
0.233572
0.177002
0.25143
25.4105
91.8085
19.5281
68.0305
14.9715
50.6647
11.4629
37.8815
8.77227
28.4145
6.71513
21.3684
5.1457
16.1037
3.95025
12.1577
3.04079
9.19254
2.34958
6.95987
1.82466
5.27593
1.42626
4.00404
1.12402
3.04202
0.89485
2.31327
0.721192
1.76029
0.589717
1.33995
0.490292
1.01992
0.415201
0.775971
0.358559
0.589922
0.315877
0.448064
0.283735
0.339986
0.259535
0.257772
0.195222
0.241315
19.5416
96.9293
15.3142
72.2579
11.9128
54.066
9.22285
40.5715
7.11982
30.5175
5.48917
22.999
4.23205
17.3608
3.26694
13.1228
2.52837
9.93111
1.96454
7.52371
1.53489
5.70558
1.20793
4.331
0.959349
3.2906
0.770501
2.50212
0.62714
1.90365
0.51841
1.44868
0.436037
1.10229
0.373709
0.838299
0.326603
0.637028
0.291035
0.483632
0.264196
0.366825
0.24395
0.278018
0.210495
0.228677
15.1596
100.193
12.1916
75.2258
9.66014
56.5975
7.58078
42.6509
5.91257
32.1857
4.59543
24.3162
3.56661
18.3896
2.76915
13.9203
2.15451
10.5458
1.68277
7.99545
1.32185
6.0665
1.04632
4.60653
0.836297
3.50063
0.676365
2.66205
0.554679
2.02534
0.462171
1.54119
0.391914
1.17255
0.338611
0.891603
0.298213
0.677427
0.267621
0.514224
0.24447
0.389976
0.226959
0.295529
0.22374
0.213714
11.9189
102.031
9.90425
77.2404
8.02267
58.4791
6.39422
44.2793
5.0438
33.5361
3.95379
25.4062
3.08917
19.2543
2.41155
14.5979
1.88508
11.0722
1.47863
8.40189
1.16629
6.37883
0.927046
4.84577
0.744157
3.68351
0.604522
2.80169
0.497995
2.13187
0.416776
1.62241
0.354896
1.23443
0.307785
0.938713
0.27195
0.713263
0.24471
0.541464
0.224021
0.410665
0.208315
0.311236
0.235656
0.196398
9.2986
105.336
6.91304
79.6259
5.17448
60.2176
3.89697
45.5568
2.95145
34.4817
2.24782
26.1098
1.72163
19.7805
1.32668
14.9928
1.02945
11.3695
0.805356
8.62599
0.636175
6.54801
0.50829
4.97366
0.411488
3.78032
0.338104
2.87507
0.28239
2.18758
0.240037
1.66476
0.207811
1.26666
0.183275
0.963249
0.164588
0.73195
0.150354
0.555698
0.139512
0.421507
0.131262
0.319485
0.241941
0.124978
7.02377
107.838
5.22284
81.4269
3.91337
61.5271
2.95283
46.5174
2.24284
35.1916
1.71498
26.6377
1.32038
20.1751
1.02422
15.289
0.801329
11.5923
0.633255
8.79406
0.506344
6.67492
0.410374
5.06962
0.337676
3.85301
0.282488
2.93026
0.240494
2.22957
0.208464
1.69679
0.183982
1.29114
0.165235
0.981996
0.15086
0.746326
0.139827
0.566731
0.131355
0.42998
0.124856
0.325984
0.246927
0.11987
5.27633
109.713
3.92814
82.775
2.94924
62.506
2.23188
47.2347
1.70201
35.7215
1.3082
27.0315
1.01376
20.4695
0.792701
15.51
0.626245
11.7588
0.50067
8.91964
0.405803
6.76979
0.334014
5.14142
0.279563
3.90746
0.238134
2.97169
0.206497
2.26121
0.182241
1.72105
0.163574
1.30981
0.149156
0.996414
0.137989
0.757493
0.129326
0.575394
0.122598
0.436708
0.117382
0.3312
0.250969
0.11334
3.94122
111.101
2.94234
83.7739
2.21683
63.2315
1.68491
47.7667
1.29186
36.1146
0.999539
27.3238
0.780744
20.6883
0.616285
15.6745
0.492304
11.8828
0.398675
9.01327
0.327873
6.84059
0.274226
5.19506
0.233451
3.94824
0.202319
3.00281
0.178418
2.28511
0.15995
1.73951
0.145592
1.32416
0.134366
1.00764
0.12555
0.766309
0.118609
0.582335
0.113138
0.442179
0.108838
0.335501
0.254345
0.105462
2.92684
112.112
2.19631
84.5044
1.66388
63.7639
1.27238
48.1582
0.982392
36.4045
0.766189
27.54
0.603954
20.8505
0.481708
15.7967
0.38934
11.9752
0.31945
9.08316
0.266507
6.89353
0.226308
5.23526
0.19566
3.97889
0.172142
3.02633
0.153946
2.30331
0.139734
1.75373
0.128532
1.33536
0.11963
1.01654
0.112514
0.773425
0.10681
0.58804
0.102234
0.446754
0.0985804
0.339155
0.257256
0.0956702
2.16542
112.832
1.63927
85.0306
1.25235
64.1508
0.965797
48.4447
0.752295
36.6181
0.592269
27.7
0.471592
20.9712
0.380251
15.8881
0.310962
12.0444
0.258361
9.13576
0.218401
6.93349
0.187963
5.2657
0.164651
4.0022
0.146637
3.04435
0.132552
2.31739
0.121392
1.76488
0.112438
1.34432
0.105177
1.0238
0.09925
0.779352
0.0944004
0.59289
0.0904365
0.450718
0.0872177
0.342374
0.259857
0.0846167
1.58827
113.324
1.21957
85.3993
0.943383
64.427
0.735902
48.6522
0.579546
36.7744
0.461206
27.8184
0.371202
21.0612
0.302571
15.9567
0.25018
12.0968
0.210202
9.17574
0.179697
6.964
0.156353
5.28904
0.138363
4.02019
0.124331
3.05838
0.11321
2.32851
0.104238
1.77386
0.0968815
1.35167
0.0907761
1.02991
0.0856753
0.784454
0.0814121
0.597153
0.0778615
0.454269
0.0749332
0.345302
0.262254
0.0725359
1.16354
113.642
0.913426
85.6494
0.719222
64.6212
0.56944
48.802
0.454253
36.8896
0.365633
27.907
0.297313
21.1295
0.244622
16.0094
0.204023
12.1374
0.17281
9.20695
0.148847
6.98796
0.130397
5.30749
0.11607
4.03451
0.10477
3.06968
0.0956734
2.33761
0.0881852
1.78134
0.0819042
1.35795
0.0765679
1.03524
0.0720118
0.78901
0.0681314
0.601034
0.0648492
0.457551
0.0621098
0.348042
0.264519
0.0598453
0.850054
113.825
0.690055
85.8094
0.556843
64.7544
0.449195
48.9096
0.363572
36.9752
0.295999
27.9746
0.242857
21.1827
0.201211
16.051
0.168714
12.1699
0.143483
9.23218
0.123961
7.00748
0.10882
5.32263
0.0969619
4.04637
0.0874989
3.07914
0.0797578
2.34535
0.0732569
1.78785
0.0676851
1.36353
0.062852
1.04008
0.0586505
0.793211
0.0550207
0.604664
0.0519174
0.460655
0.0493082
0.350651
0.266688
0.0471399
0.6214
113.901
0.529728
85.9011
0.441507
64.8427
0.364147
48.987
0.299273
37.0401
0.246169
28.0277
0.203274
21.2256
0.16897
16.0854
0.141786
12.1971
0.120431
9.25354
0.103763
7.02415
0.0907377
5.33566
0.0804549
4.05665
0.0721626
3.08743
0.065285
2.35222
0.0594128
1.79372
0.0542935
1.36864
0.0497847
1.04459
0.0458187
0.797177
0.0423649
0.608117
0.0393979
0.463622
0.0368992
0.35315
0.268766
0.0348217
0.458177
113.895
0.418027
85.9412
0.362488
64.8982
0.306316
49.0432
0.255435
37.091
0.211764
28.0713
0.175346
21.262
0.145551
16.1151
0.121545
12.2211
0.10246
9.27263
0.0874356
7.03918
0.0756175
5.34748
0.0662327
4.06604
0.0586118
3.09506
0.0522348
2.3586
0.0467336
1.79922
0.0418898
1.37349
0.0375909
1.04889
0.0337933
0.800975
0.0304833
0.611428
0.0276451
0.46646
0.0252645
0.355531
0.270736
0.0232944
0.344146
113.824
0.342859
85.9425
0.310757
64.9303
0.268956
49.085
0.227018
37.1329
0.189023
28.1093
0.156271
21.2948
0.128875
16.1425
0.106461
12.2435
0.0884486
9.29064
0.0741696
7.05345
0.0628871
5.35876
0.0539038
4.07502
0.0465936
3.10237
0.0404622
2.36473
0.0351591
1.80452
0.0304817
1.37816
0.0263325
1.05303
0.0226798
0.804628
0.019517
0.614591
0.0168273
0.46915
0.0145937
0.357765
0.272567
0.0127629
0.267479
113.701
0.295412
85.9146
0.279721
64.946
0.24712
49.1176
0.210301
37.1697
0.175137
28.1445
0.143923
21.326
0.117327
16.1691
0.0953012
12.2656
0.0774578
9.30848
0.0632466
7.06767
0.0519974
5.37001
0.04305
4.08397
0.0357923
3.10963
0.0297332
2.37079
0.0245217
1.80973
0.0199564
1.38273
0.0159423
1.05705
0.0124486
0.808122
0.00946559
0.617574
0.00696728
0.471649
0.00492748
0.359805
0.274213
0.0032821
0.21802
113.536
0.26811
85.8645
0.263698
64.9504
0.236529
49.1447
0.202054
37.2042
0.167668
28.1789
0.136465
21.3572
0.109525
16.1961
0.0870261
12.2881
0.0687007
9.32681
0.0540696
7.0823
0.0424937
5.38159
0.0333255
4.09314
0.0259469
3.117
0.0198545
2.37689
0.0146825
1.8149
0.0102188
1.38719
0.00635997
1.06091
0.00306452
0.811418
0.000310298
0.620328
-0.00194693
0.473906
-0.00374836
0.361607
0.275633
-0.00516904
0.189159
113.337
0.256094
85.7975
0.259094
64.9474
0.234509
49.1693
0.200267
37.2385
0.165078
28.2141
0.132695
21.3896
0.104524
16.2243
0.0808975
12.3117
0.0616101
9.3461
0.0462091
7.0977
0.0340526
5.39375
0.0244844
4.10271
0.0168673
3.12462
0.0106754
2.38308
0.0055202
1.82006
0.0011672
1.39155
-0.0025066
1.06458
-0.00556393
0.814476
-0.00804509
0.62281
-0.0100132
0.475874
-0.0115317
0.363125
0.276791
-0.0126885
-0.264054
113.249
-0.199348
85.7328
-0.151318
64.8994
-0.115316
49.1333
-0.0883851
37.2115
-0.0682936
28.194
-0.0534529
21.3747
-0.0426515
16.2135
-0.034906
12.3039
-0.0294182
9.34061
-0.0255408
7.09382
-0.0228166
5.39102
-0.0209292
4.10082
-0.0197016
3.1234
-0.0190291
2.38241
-0.0188237
1.81986
-0.0189649
1.39169
-0.0193027
1.06492
-0.0196979
0.814871
-0.0200464
0.623158
-0.0202976
0.476126
-0.0204454
0.363273
0.276864
-0.0205183
-0.258194
113.166
-0.197845
85.6725
-0.152986
64.8545
-0.119308
49.0996
-0.0940871
37.1863
-0.0752563
28.1752
-0.0613495
21.3608
-0.0512469
16.2034
-0.0440275
12.2967
-0.0389322
9.33552
-0.0353291
7.09022
-0.0327624
5.38846
-0.0309033
4.09897
-0.0295613
3.12206
-0.0286245
2.38147
-0.0280102
1.81924
-0.0276209
1.3913
-0.0273412
1.06464
-0.0270807
0.814611
-0.0267841
0.622862
-0.0264383
0.47578
-0.0260654
0.362901
0.2765
-0.0257012
-0.252271
113.09
-0.195935
85.6161
-0.153991
64.8126
-0.122447
49.0681
-0.0987941
37.1627
-0.0811175
28.1575
-0.0680638
21.3478
-0.0585965
16.1939
-0.0518516
12.29
-0.0471056
9.33077
-0.0437408
7.08686
-0.0413017
5.38602
-0.0394458
4.09711
-0.0379674
3.12058
-0.0367452
2.38025
-0.0357032
1.8182
-0.0347721
1.39037
-0.033879
1.06375
-0.0329855
0.813718
-0.0320861
0.621962
-0.0311981
0.474892
-0.0303638
0.362067
0.275756
-0.0296189
-0.246346
113.018
-0.19373
85.5635
-0.154485
64.7733
-0.124915
49.0385
-0.10271
37.1404
-0.0860966
28.1409
-0.073827
21.3355
-0.0649419
16.185
-0.05863
12.2837
-0.0542004
9.32634
-0.0510478
7.08371
-0.0487151
5.38369
-0.0468445
4.09524
-0.045213
3.11895
-0.0436897
2.37873
-0.0422083
1.81672
-0.0407342
1.3889
-0.0392435
1.06226
-0.037752
0.812227
-0.0362986
0.620509
-0.0349271
0.473521
-0.0336923
0.360833
0.274689
-0.0326251
-0.240457
112.952
-0.191309
85.5144
-0.154578
64.7366
-0.126844
49.0108
-0.105982
37.1196
-0.0903541
28.1252
-0.0788089
21.3239
-0.0704599
16.1767
-0.0645453
12.2777
-0.0604048
9.3222
-0.057443
7.08075
-0.0552007
5.38145
-0.0533025
4.09335
-0.0515076
3.11716
-0.0496757
2.3769
-0.0477535
1.8148
-0.0457468
1.38689
-0.0436856
1.0602
-0.0416386
0.810181
-0.0396857
0.618556
-0.0378903
0.471726
-0.0363136
0.359256
0.273352
-0.0349763
-0.234633
112.89
-0.18873
85.4685
-0.154351
64.7022
-0.128331
48.9848
-0.108723
37.1
-0.0940115
28.1105
-0.0831386
21.3131
-0.0752854
16.1688
-0.0697372
12.2722
-0.0658618
9.31833
-0.0630731
7.07796
-0.0609083
5.37929
-0.0589742
4.09141
-0.0570116
3.1152
-0.0548714
2.37476
-0.0525168
1.81245
-0.0499978
1.38437
-0.0474015
1.0576
-0.0448476
0.807628
-0.0424504
0.61616
-0.0402885
0.469565
-0.0384229
0.357391
0.271792
-0.0368613
-0.228892
112.832
-0.186038
85.4256
-0.153866
64.67
-0.129453
48.9604
-0.111017
37.0815
-0.0971622
28.0967
-0.0869152
21.3028
-0.0795223
16.1614
-0.074313
12.267
-0.0706818
9.3147
-0.0680511
7.07533
-0.0659541
5.37719
-0.0639796
4.08944
-0.0618504
3.11307
-0.0594097
2.37232
-0.0566401
1.80968
-0.0536376
1.38137
-0.0505476
1.05452
-0.0475375
0.804619
-0.0447503
0.613372
-0.0422742
0.467089
-0.040166
0.355284
0.270045
-0.0384187
-0.22325
112.778
-0.183267
85.3856
-0.153171
64.64
-0.130269
48.9375
-0.112934
37.0642
-0.0998813
28.0836
-0.0902191
21.2932
-0.0832546
16.1544
-0.0783599
12.2621
-0.0749546
9.3113
-0.0724691
7.07285
-0.0704325
5.37516
-0.0684169
4.08743
-0.0661274
3.11078
-0.0634015
2.3696
-0.0602422
1.80652
-0.0567921
1.37792
-0.0532538
1.05098
-0.0498386
0.801205
-0.0467117
0.610246
-0.0439679
0.464345
-0.041656
0.352972
0.268144
-0.0397541
-0.217715
112.729
-0.180443
85.3484
-0.152307
64.6118
-0.130828
48.916
-0.11453
37.0479
-0.10223
28.0713
-0.0931157
21.2841
-0.0865511
16.1479
-0.081949
12.2575
-0.0787533
9.3081
-0.076402
7.0705
-0.0744211
5.37318
-0.0723667
4.08538
-0.0699286
3.10834
-0.0669392
2.36661
-0.0634227
1.80301
-0.0595669
1.37407
-0.0556284
1.04704
-0.0518573
0.797435
-0.0484376
0.606826
-0.0454663
0.461374
-0.0429828
0.350489
0.266113
-0.040951
-0.212295
112.683
-0.177588
85.3137
-0.151304
64.5855
-0.131171
48.8959
-0.11585
37.0326
-0.10426
28.0597
-0.0956595
21.2755
-0.089469
16.1417
-0.0851398
12.2532
-0.0821392
9.3051
-0.079913
7.06827
-0.0779847
5.37125
-0.0758972
4.08329
-0.0733266
3.10578
-0.0701019
2.36339
-0.0662675
1.79917
-0.0620526
1.36985
-0.0577631
1.04275
-0.0536842
0.793357
-0.050014
0.603156
-0.0468503
0.458211
-0.0442217
0.347861
0.263973
-0.0420808
-0.206998
112.64
-0.174722
85.2814
-0.150193
64.561
-0.131332
48.877
-0.116935
37.0182
-0.106014
28.0488
-0.0978978
21.2673
-0.092058
16.1359
-0.087984
12.2491
-0.0851654
9.30229
-0.0830565
7.06617
-0.0811797
5.36937
-0.0790675
4.08118
-0.0763851
3.1031
-0.0729589
2.35996
-0.0688517
1.79507
-0.0643286
1.36533
-0.0597391
1.03817
-0.0553978
0.789017
-0.0515158
0.599274
-0.0481904
0.454886
-0.0454399
0.345111
0.261743
-0.0432084
-0.201826
112.6
-0.171859
85.2514
-0.148995
64.5381
-0.131342
48.8593
-0.11782
37.0047
-0.107532
28.0385
-0.0998718
21.2597
-0.0943615
16.1303
-0.0905264
12.2453
-0.0878782
9.29964
-0.0858801
7.06417
-0.0840551
5.36755
-0.0819292
4.07906
-0.0791595
3.10033
-0.0755712
2.35638
-0.0712421
1.79074
-0.0664655
1.36056
-0.0616279
1.03333
-0.0570685
0.784458
-0.0530101
0.595215
-0.049552
0.451428
-0.0467031
0.342263
0.25944
-0.0443991
-0.196783
112.564
-0.169013
85.2237
-0.147733
64.5169
-0.131226
48.8428
-0.118536
36.992
-0.108847
28.0288
-0.101617
21.2524
-0.0964171
16.1251
-0.0928062
12.2416
-0.0903179
9.29715
-0.0884254
7.06228
-0.086654
5.36578
-0.0845276
4.07693
-0.0816988
3.0975
-0.0779927
2.35267
-0.0734978
1.78625
-0.0685264
1.35559
-0.0634937
1.0283
-0.0587604
0.779726
-0.0545607
0.591016
-0.0509977
0.447866
-0.0480699
0.339336
0.257076
-0.0457041
-0.191873
112.531
-0.166196
85.198
-0.146424
64.4971
-0.131009
48.8274
-0.119109
36.9801
-0.10999
28.0197
-0.103168
21.2456
-0.0982599
16.1202
-0.0948598
12.2382
-0.0925219
9.29482
-0.0907307
7.06049
-0.089016
5.36407
-0.0869044
4.07482
-0.0840477
3.09465
-0.0802727
2.3489
-0.0756733
1.78165
-0.07057
1.35048
-0.0653973
1.02313
-0.0605348
0.774865
-0.056227
0.586707
-0.0525774
0.444216
-0.0495769
0.336336
0.25465
-0.0471494
-0.187097
112.5
-0.163418
85.1743
-0.145085
64.4788
-0.130713
48.8131
-0.119565
36.9689
-0.110988
28.0112
-0.104553
21.2392
-0.0999209
16.1156
-0.0967195
12.235
-0.0945237
9.29262
-0.0928304
7.0588
-0.0911763
5.36242
-0.0890963
4.07274
-0.0862458
3.0918
-0.0824546
2.34511
-0.0778169
1.77701
-0.0726499
1.34532
-0.0673952
1.01787
-0.0624475
0.769918
-0.0580574
0.582318
-0.0543299
0.440489
-0.0512614
0.333268
0.252173
-0.0487838
-0.182457
112.472
-0.16069
85.1525
-0.143733
64.4618
-0.130356
48.7997
-0.119928
36.9585
-0.111868
28.0031
-0.1058
21.2331
-0.10143
16.1112
-0.0984162
12.232
-0.0963549
9.29056
-0.0947571
7.0572
-0.0931686
5.36083
-0.0911381
4.07071
-0.0883297
3.08899
-0.0845785
2.34136
-0.0799736
1.77241
-0.0748171
1.34016
-0.0695427
1.0126
-0.0645517
0.764929
-0.0601043
0.57787
-0.05632
0.436705
-0.0532155
0.330164
0.249683
-0.0507235
-0.177954
112.447
-0.158019
85.1326
-0.142381
64.4462
-0.129958
48.7873
-0.120219
36.9488
-0.112653
27.9955
-0.106936
21.2274
-0.102814
16.1071
-0.0999779
12.2292
-0.0980445
9.28863
-0.0965403
7.0557
-0.0950229
5.35931
-0.0930607
4.06875
-0.0903316
3.08626
-0.0866795
2.33771
-0.0821831
1.76791
-0.0771178
1.3351
-0.0718919
1.00738
-0.066907
0.759945
-0.0624447
0.573408
-0.0586549
0.432916
-0.0555597
0.327069
0.247197
-0.0530731
-0.17359
112.424
-0.155415
85.1144
-0.141044
64.4318
-0.129537
48.7757
-0.120459
36.9397
-0.113366
27.9884
-0.107985
21.222
-0.104099
16.1032
-0.101431
12.2265
-0.0996201
9.28682
-0.0982085
7.05429
-0.096768
5.35787
-0.0948933
4.06688
-0.0922811
3.08365
-0.0887892
2.33422
-0.084481
1.76361
-0.0795953
1.33021
-0.0744988
1.00228
-0.0695891
0.755036
-0.0651769
0.568995
-0.0614224
0.429162
-0.0583256
0.323973
0.244668
-0.0557948
-0.169365
112.404
-0.152884
85.0979
-0.139733
64.4186
-0.129109
48.7651
-0.120667
36.9313
-0.114029
27.9818
-0.108969
21.217
-0.105309
16.0996
-0.102803
12.224
-0.101108
9.28513
-0.0997883
7.05297
-0.0984308
5.35652
-0.0966626
4.06511
-0.0942044
3.0812
-0.0909347
2.33095
-0.0868979
1.75957
-0.0822901
1.32561
-0.077424
0.997418
-0.0726773
0.75029
-0.068359
0.564677
-0.0646071
0.42541
-0.0614302
0.320796
0.242036
-0.0587977
-0.16528
112.386
-0.150436
85.0831
-0.138462
64.4067
-0.128689
48.7554
-0.120862
36.9234
-0.114663
27.9756
-0.109912
21.2122
-0.106468
16.0961
-0.104115
12.2217
-0.102533
9.28354
-0.101305
7.05174
-0.100037
5.35525
-0.0983934
4.06347
-0.0961248
3.07893
-0.093139
2.32797
-0.0894599
1.75589
-0.0852403
1.32139
-0.0807243
0.992902
-0.0762216
0.745788
-0.0719964
0.560451
-0.0682012
0.421615
-0.0649616
0.317557
0.239405
-0.0623291
-0.161336
112.37
-0.148075
85.0698
-0.137241
64.3958
-0.128293
48.7464
-0.121061
36.9162
-0.115287
27.9698
-0.110834
21.2078
-0.107598
16.0929
-0.105393
12.2195
-0.10392
9.28207
-0.102784
7.05061
-0.10161
5.35408
-0.100108
4.06197
-0.0980619
3.07688
-0.0954199
2.32533
-0.0921868
1.75266
-0.088475
1.31768
-0.0844354
0.988864
-0.0802546
0.741608
-0.0761709
0.556368
-0.0724817
0.417926
-0.0694449
0.31452
0.237024
-0.0670637
-0.157535
112.357
-0.14581
85.0581
-0.136082
64.3861
-0.127936
48.7383
-0.121282
36.9095
-0.115919
27.9645
-0.111756
21.2036
-0.108721
16.0899
-0.106658
12.2174
-0.10529
9.2807
-0.104247
7.04957
-0.103173
5.35301
-0.101828
4.06063
-0.100033
3.07509
-0.0977913
2.32309
-0.0950909
1.74996
-0.0920063
1.31459
-0.0885764
0.985434
-0.0848629
0.737895
-0.0811785
0.552683
-0.0779793
0.414727
-0.0754193
0.31196
0.234903
-0.0732978
-0.153875
112.346
-0.143646
85.0479
-0.134996
64.3775
-0.12763
48.7309
-0.12154
36.9035
-0.116579
27.9595
-0.112698
21.1997
-0.109858
16.087
-0.107933
12.2155
-0.106668
9.27944
-0.105717
7.04862
-0.104748
5.35204
-0.103574
4.05946
-0.102054
3.07357
-0.100262
2.3213
-0.0981745
1.74787
-0.0958309
1.31225
-0.0931796
0.982784
-0.0902277
0.734943
-0.0873603
0.549816
-0.0848922
0.412259
-0.0825981
0.309666
0.232548
-0.0802429
-0.150359
112.336
-0.141591
85.0391
-0.133993
64.3699
-0.127391
48.7243
-0.121852
36.8979
-0.117284
27.9549
-0.113678
21.1961
-0.111027
16.0844
-0.109236
12.2137
-0.108072
9.27828
-0.107216
7.04776
-0.106355
5.35118
-0.105363
4.05846
-0.104136
3.07234
-0.102834
2.31999
-0.101426
1.74647
-0.0999313
1.31076
-0.0982858
0.981138
-0.0964821
0.73314
-0.0946993
0.548033
-0.0927035
0.410264
-0.0901086
0.307071
0.229603
-0.0871637
-0.146987
112.329
-0.139648
85.0318
-0.133083
64.3633
-0.127229
48.7184
-0.122231
36.8929
-0.11805
27.9508
-0.114713
21.1928
-0.112249
16.0819
-0.110591
12.212
-0.109526
9.27721
-0.108764
7.047
-0.108014
5.35043
-0.107211
4.05766
-0.106285
3.07142
-0.105495
2.3192
-0.104814
1.74579
-0.10426
1.3102
-0.103858
0.980737
-0.103498
0.73278
-0.10277
0.547307
-0.100966
0.40846
-0.0982887
0.304394
0.227017
-0.0957023
-0.138724
112.317
-0.129522
85.0226
-0.122464
64.3562
-0.116791
48.7128
-0.112249
36.8884
-0.108596
27.9471
-0.105747
21.1899
-0.103681
16.0798
-0.102325
12.2107
-0.101489
9.27638
-0.100925
7.04644
-0.100387
5.34989
-0.0998614
4.05714
-0.0993249
3.07088
-0.099102
2.31898
-0.0992089
1.74589
-0.0996788
1.31067
-0.100665
0.981723
-0.101871
0.733986
-0.102399
0.547833
-0.101752
0.407814
-0.100976
0.303619
0.226991
-0.100951
-0.110564
112.308
-0.103476
85.0155
-0.0980423
64.3508
-0.0936628
48.7084
-0.0901455
36.8849
-0.0873014
27.9443
-0.0850705
21.1877
-0.0834422
16.0782
-0.0823713
12.2096
-0.0817139
9.27572
-0.0812877
7.04602
-0.0809109
5.34952
-0.0805963
4.05683
-0.0803635
3.07065
-0.0805098
2.31913
-0.0811174
1.7465
-0.0822182
1.31178
-0.0840034
0.98351
-0.0861142
0.736098
-0.0877569
0.549479
-0.0890205
0.409078
-0.0909504
0.305551
0.2296
-0.0935569
-0.088088
112.301
-0.0826087
85.01
-0.0784122
64.3466
-0.0750215
48.705
-0.0722901
36.8821
-0.0700707
27.942
-0.0683193
21.186
-0.0670326
16.0769
-0.0661836
12.2087
-0.0656644
9.2752
-0.0653397
7.04569
-0.0650752
5.34925
-0.0648911
4.05664
-0.0648312
3.07059
-0.0651412
2.31944
-0.0659453
1.74731
-0.0672646
1.3131
-0.0692678
0.985512
-0.0716346
0.738464
-0.073855
0.551697
-0.0763623
0.411588
-0.0797721
0.308962
0.23323
-0.0834005
-0.0701441
112.295
-0.0658848
85.0058
-0.0626258
64.3434
-0.0599875
48.7024
-0.0578567
36.88
-0.0561179
27.9403
-0.0547376
21.1846
-0.0537169
16.0759
-0.0530403
12.2081
-0.0526271
9.27479
-0.0523762
7.04544
-0.0521882
5.34907
-0.0520826
4.05654
-0.0521149
3.07063
-0.0524741
2.3198
-0.0533025
1.74814
-0.0546131
1.31441
-0.0565243
0.987425
-0.0587904
0.740732
-0.0611551
0.554064
-0.0641303
0.414562
-0.0678855
0.312719
0.236757
-0.0714122
-0.0558303
112.291
-0.0525027
85.0024
-0.0499596
64.3408
-0.0478977
48.7003
-0.0462288
36.8783
-0.0448616
27.9389
-0.0437703
21.1835
-0.0429579
16.0751
-0.0424162
12.2075
-0.0420851
9.27446
-0.0418884
7.04525
-0.0417528
5.34893
-0.0416935
4.05648
-0.04177
3.0707
-0.0421216
2.32015
-0.0428884
1.7489
-0.0440833
1.3156
-0.045776
0.989116
-0.0477875
0.742742
-0.0500375
0.556312
-0.0529557
0.417482
-0.0564211
0.316183
0.239726
-0.0593893
-0.0443934
112.288
-0.0417612
84.9998
-0.039752
64.3388
-0.0381225
48.6987
-0.0368021
36.877
-0.0357174
27.9379
-0.0348475
21.1826
-0.0341956
16.0744
-0.0337574
12.2071
-0.033488
9.27419
-0.0333299
7.04509
-0.0332286
5.34883
-0.0331947
4.05644
-0.0332861
3.0708
-0.0336025
2.32047
-0.0342688
1.74957
-0.0353035
1.31664
-0.0367378
0.990552
-0.038439
0.744445
-0.0404296
0.558304
-0.0430082
0.420059
-0.0459085
0.319085
0.242037
-0.0482195
-0.0354145
112.285
-0.03342
84.9978
-0.0318988
64.3373
-0.0306607
48.6974
-0.0296528
36.876
-0.0288192
27.937
-0.0281454
21.1819
-0.0276366
16.0739
-0.0272934
12.2067
-0.0270831
9.27398
-0.0269626
7.04497
-0.0268916
5.34876
-0.0268777
4.05643
-0.0269751
3.07089
-0.0272574
2.32075
-0.0278305
1.75014
-0.0287186
1.31753
-0.0299336
0.991765
-0.0313722
0.745882
-0.0331046
0.560034
-0.0353217
0.422277
-0.0377066
0.321468
0.24383
-0.0394987
-0.0280347
112.283
-0.0263632
84.9961
-0.0250909
64.336
-0.0240596
48.6964
-0.0232232
36.8752
-0.0225334
27.9363
-0.0219757
21.1814
-0.0215519
16.0735
-0.0212617
12.2065
-0.02108
9.2738
-0.0209736
7.04486
-0.0209122
5.3487
-0.0208997
4.05642
-0.020982
3.07098
-0.0212107
2.32098
-0.0216667
1.7506
-0.0223803
1.31825
-0.0233477
0.992734
-0.0244882
0.747024
-0.0258838
0.561431
-0.0276345
0.424026
-0.0294289
0.323264
0.245098
-0.0306978
-0.0210814
112.277
-0.0158962
84.9909
-0.0117503
64.3319
-0.00837874
48.693
-0.00563518
36.8724
-0.00338475
27.9341
-0.00153881
21.1795
-4.38993e-05
16.072
0.0011392
12.2053
0.00205942
9.27288
0.00276649
7.04416
0.00330272
5.34816
0.00366637
4.05605
0.00382272
3.07082
0.00372627
2.32107
0.00330162
1.75102
0.00257498
1.31897
0.00154783
0.993759
0.000266588
0.748303
-0.0012715
0.562967
-0.00300202
0.425757
-0.00476334
0.325024
0.246643
-0.00630803
-0.0221422
112.27
-0.0166972
84.9855
-0.0123452
64.3275
-0.00880633
48.6895
-0.00592608
36.8696
-0.00356206
27.9317
-0.00162038
21.1776
-4.50265e-05
16.0704
0.00120399
12.204
0.00217606
9.27191
0.00292102
7.04341
0.00348185
5.34761
0.00385589
4.05568
0.00400438
3.07067
0.00388606
2.32119
0.00341629
1.75149
0.00263068
1.31976
0.00153778
0.994853
0.000186766
0.749655
-0.00142565
0.564579
-0.00321304
0.427543
-0.00500179
0.326813
0.248205
-0.00656349
-0.0232564
112.263
-0.0175386
84.9798
-0.0129701
64.3229
-0.00925575
48.6858
-0.00623213
36.8665
-0.00374893
27.9292
-0.00170672
21.1756
-4.67113e-05
16.0688
0.00127182
12.2027
0.00229882
9.27088
0.00308412
7.04263
0.00367119
5.34702
0.00405667
4.0553
0.00419724
3.07053
0.00405651
2.32133
0.00354181
1.75201
0.00269625
1.3206
0.00153943
0.996008
0.000123746
0.751069
-0.00154589
0.566247
-0.00336275
0.42936
-0.00514671
0.328596
0.249758
-0.0066993
-0.0244267
112.256
-0.0184221
84.9738
-0.0136265
64.3181
-0.00972807
48.6819
-0.00655405
36.8634
-0.00394584
27.9266
-0.00179803
21.1734
-4.89995e-05
16.067
0.0013429
12.2013
0.00242803
9.2698
0.00325625
7.0418
0.00387138
5.3464
0.00426942
4.0549
0.00440209
3.0704
0.00423816
2.3215
0.00367854
1.75257
0.0027717
1.32151
0.00155156
0.997229
7.46693e-05
0.752547
-0.00163565
0.567957
-0.00345846
0.431181
-0.00521319
0.330351
0.251284
-0.00673959
-0.0256553
112.248
-0.0193501
84.9675
-0.0143161
64.3131
-0.0102244
48.6778
-0.00689267
36.86
-0.00415326
27.9239
-0.00189462
21.1711
-5.19382e-05
16.0652
0.00141737
12.1998
0.0025641
9.26865
0.00343804
7.04093
0.00408328
5.34576
0.00449522
4.05449
0.00462034
3.07027
0.0044327
2.32168
0.00382893
1.75317
0.00286073
1.32248
0.00157905
0.998508
4.77653e-05
0.754076
-0.00168619
0.569688
-0.00349353
0.432988
-0.00519873
0.332055
0.252766
-0.00668145
-0.026946
112.24
-0.0203247
84.9609
-0.0150404
64.3078
-0.0107461
48.6735
-0.00724882
36.8565
-0.0043718
27.921
-0.00199676
21.1688
-5.55503e-05
16.0632
0.00149548
12.1983
0.0027075
9.26744
0.00363022
7.04001
0.00430786
5.34508
0.00473535
4.05406
0.00485375
3.07015
0.00464238
2.32189
0.00399634
1.75382
0.00296856
1.32351
0.00162925
0.999848
5.46146e-05
0.755651
-0.0016866
0.571429
-0.00346073
0.434761
-0.0050956
0.33369
0.254183
-0.00651275
-0.0283009
112.231
-0.0213482
84.9539
-0.0158014
64.3023
-0.0112942
48.669
-0.00762339
36.8529
-0.00460201
27.918
-0.00210475
21.1663
-5.98515e-05
16.0612
0.00157743
12.1967
0.00285875
9.26616
0.00383358
7.03903
0.00454618
5.34437
0.00499115
4.05361
0.00510414
3.07004
0.00486965
2.32213
0.00418422
1.7545
0.00310085
1.32459
0.0017102
1.00124
0.000105334
0.757255
-0.00162773
0.573159
-0.00335389
0.436487
-0.00489623
0.335231
0.255512
-0.00622512
-0.0297241
112.222
-0.0224231
84.9466
-0.0166004
64.2965
-0.0118703
48.6643
-0.00801733
36.849
-0.00484447
27.9148
-0.00221885
21.1637
-6.48706e-05
16.059
0.00166355
12.1949
0.00301837
9.26481
0.00404883
7.038
0.00479917
5.34362
0.00526379
4.05315
0.00537314
3.06993
0.00511678
2.32238
0.00439587
1.75522
0.00326307
1.32572
0.0018295
1.00267
0.000207416
0.758877
-0.00149925
0.574865
-0.0031643
0.43815
-0.00459222
0.336659
0.256732
-0.00581222
-0.0312185
112.213
-0.0235519
84.9389
-0.0174399
64.2904
-0.0124756
48.6593
-0.00843159
36.845
-0.00509978
27.9115
-0.00233937
21.1609
-7.05631e-05
16.0568
0.00175405
12.1931
0.00318682
9.26337
0.00427667
7.03691
0.00506766
5.34283
0.00555421
4.05266
0.00566199
3.06982
0.00538563
2.32266
0.0046339
1.75597
0.00345981
1.3269
0.00199394
1.00413
0.000366183
0.760504
-0.00129498
0.576523
-0.00288137
0.439736
-0.00417486
0.337951
0.257824
-0.00526742
-0.0327876
112.203
-0.0247373
84.9309
-0.0183215
64.2839
-0.0131116
48.6541
-0.00886719
36.8407
-0.00536865
27.908
-0.00246667
21.158
-7.70422e-05
16.0544
0.00184915
12.1912
0.00336455
9.26186
0.00451762
7.03576
0.00535223
5.342
0.00586301
4.05215
0.00597145
3.06972
0.00567737
2.32295
0.00489996
1.75675
0.00369387
1.3281
0.00220839
1.00562
0.000587417
0.762125
-0.00101435
0.578124
-0.00249876
0.441218
-0.00364317
0.339095
0.258776
-0.00459626
-0.0344353
112.193
-0.0259819
84.9224
-0.0192477
64.2772
-0.0137799
48.6486
-0.0093252
36.8363
-0.00565169
27.9043
-0.00260108
21.1549
-8.43437e-05
16.0519
0.001949
12.1891
0.00355186
9.26025
0.00477215
7.03454
0.00565329
5.34111
0.00619053
4.05161
0.00630185
3.0696
0.0059925
2.32326
0.00519469
1.75755
0.00396639
1.32933
0.00247513
1.00711
0.000875802
0.763724
-0.000659677
0.579657
-0.00201563
0.442574
-0.00300279
0.340082
0.259587
-0.00381377
-0.0361658
112.182
-0.0272891
84.9136
-0.02022
64.2701
-0.014482
48.6429
-0.00980679
36.8316
-0.00594969
27.9005
-0.00274297
21.1517
-9.25537e-05
16.0492
0.00205374
12.187
0.00374909
9.25856
0.0050406
7.03325
0.00597121
5.34018
0.00653692
4.05105
0.0066532
3.06949
0.006331
2.32358
0.00551793
1.75836
0.00427719
1.33057
0.00279432
1.00859
0.00122949
0.765289
-0.000229959
0.581115
-0.00143508
0.443777
-0.00226237
0.340908
0.260261
-0.00293637
-0.0379825
112.17
-0.0286619
84.9042
-0.0212416
64.2627
-0.0152197
48.6369
-0.0103131
36.8267
-0.0062634
27.8964
-0.00289282
21.1484
-0.000101846
16.0464
0.00216351
12.1847
0.00395653
9.25677
0.00532337
7.03188
0.00630628
5.3392
0.00690234
4.05045
0.00702542
3.06936
0.00669263
2.32391
0.00586912
1.75918
0.00462525
1.33181
0.00316503
1.01005
0.00164491
0.766808
0.000276417
0.582482
-0.000768403
0.444821
-0.00143817
0.341577
0.260797
-0.00197498
-0.0398903
112.158
-0.0301031
84.8944
-0.0223143
64.2549
-0.0159948
48.6305