/*--------------------------------*- C++ -*----------------------------------*\
  =========                 |
  \\      /  F ield         | OpenFOAM: The Open Source CFD Toolbox
   \\    /   O peration     | Website:  https://openfoam.org
    \\  /    A nd           | Version:  7
     \\/     M anipulation  |
\*---------------------------------------------------------------------------*/
FoamFile
{
    version     2.0;
    format      ascii;
    class       volVectorField;
    location    "50";
    object      U;
}
// * * * * * * * * * * * * * * * * * * * * * * * * * * * * * * * * * * * * * //

dimensions      [0 1 -1 0 0 0 0];

internalField   nonuniform List<vector> 
12842
(
(15.5343 1.63322 1.11374e-19)
(15.5357 1.63551 6.36505e-19)
(15.5364 1.6382 1.73479e-19)
(15.5369 1.64204 -4.53624e-19)
(15.5367 1.64767 1.71283e-18)
(15.5354 1.65578 0)
(15.5325 1.6672 0)
(15.5271 1.68292 1.18227e-19)
(15.5184 1.70408 -8.9112e-19)
(15.5051 1.73199 -6.21633e-21)
(15.4857 1.76808 -2.29072e-19)
(15.4585 1.8138 5.37729e-21)
(15.4214 1.8704 -6.97085e-20)
(15.3726 1.93864 1.22649e-20)
(15.3107 2.01846 -1.52176e-20)
(15.2353 2.10877 -6.01062e-20)
(15.1472 2.20727 -7.46911e-20)
(15.0486 2.31065 0)
(14.9432 2.4149 1.09211e-20)
(14.8354 2.51595 7.4152e-20)
(14.73 2.61023 1.25493e-20)
(14.6308 2.69513 -5.50668e-20)
(14.5416 2.76782 4.40707e-20)
(15.5344 1.63309 -1.60994e-19)
(15.5364 1.63478 0)
(15.5377 1.63747 1.90515e-18)
(15.5392 1.64144 -1.05126e-18)
(15.5406 1.64737 -1.3349e-18)
(15.5414 1.65606 0)
(15.5413 1.66847 1.72642e-18)
(15.5396 1.68571 0)
(15.5352 1.70911 1.3924e-18)
(15.5272 1.74016 1.33799e-19)
(15.514 1.7805 4.42342e-19)
(15.4939 1.83176 4.98006e-19)
(15.4651 1.89536 6.62487e-20)
(15.4254 1.97203 -1.58243e-19)
(15.373 2.06151 0)
(15.307 2.16224 6.02109e-20)
(15.2274 2.27125 1.0213e-19)
(15.1361 2.38445 -9.68777e-20)
(15.0361 2.49713 0)
(14.9319 2.60475 -9.52783e-20)
(14.8284 2.70345 -1.30594e-19)
(14.7297 2.79119 1.39451e-19)
(14.6403 2.86324 -1.404e-19)
(15.5346 1.63284 0)
(15.5369 1.634 0)
(15.5388 1.63657 1.35072e-19)
(15.5412 1.64047 5.97833e-18)
(15.544 1.64641 0)
(15.5469 1.65531 0)
(15.5495 1.66823 2.47033e-19)
(15.5512 1.68645 -1.43568e-18)
(15.551 1.71141 -6.22235e-19)
(15.548 1.74474 -4.8857e-19)
(15.5409 1.78824 -7.73655e-19)
(15.528 1.84377 -4.8335e-19)
(15.5074 1.9129 -8.44431e-20)
(15.4768 1.9965 2.63012e-19)
(15.4342 2.09421 0)
(15.3778 2.20418 1.62309e-20)
(15.3073 2.32291 -2.07713e-20)
(15.2238 2.44566 5.44315e-20)
(15.1303 2.56704 1.42211e-20)
(15.0308 2.68203 -4.07878e-20)
(14.9307 2.78634 9.23601e-20)
(14.834 2.87844 0)
(14.7459 2.95167 4.85957e-20)
(15.5348 1.6325 -1.07906e-19)
(15.5373 1.63322 8.46785e-19)
(15.5397 1.6356 -2.61636e-18)
(15.5429 1.63925 -8.88091e-18)
(15.547 1.64498 7.69071e-19)
(15.5518 1.65377 -2.36921e-18)
(15.557 1.66682 -2.51017e-19)
(15.5619 1.68554 1.40795e-18)
(15.5658 1.71147 2.04099e-18)
(15.5677 1.74634 -1.08605e-18)
(15.5664 1.79209 1.87431e-18)
(15.5605 1.85074 -1.85164e-19)
(15.5482 1.92412 2.41387e-19)
(15.527 2.01323 7.60632e-19)
(15.4944 2.11778 -9.75238e-20)
(15.4483 2.23574 1.25542e-19)
(15.3875 2.36324 2.78391e-20)
(15.3129 2.49498 8.90622e-20)
(15.2269 2.62499 -4.40916e-20)
(15.1335 2.74779 7.69786e-20)
(15.0381 2.8586 -1.64765e-20)
(14.9448 2.95631 -2.11728e-20)
(14.8595 3.03236 6.1782e-20)
(15.5349 1.63211 -1.15827e-18)
(15.5375 1.63249 0)
(15.5404 1.63462 3.82248e-19)
(15.5443 1.63791 3.11328e-18)
(15.5495 1.64322 3.20946e-19)
(15.5561 1.65161 6.23943e-18)
(15.5637 1.66444 1.88684e-19)
(15.5718 1.68324 -3.43801e-18)
(15.5795 1.70964 -2.2834e-18)
(15.586 1.74541 1.40105e-18)
(15.5905 1.7926 -1.99517e-18)
(15.5916 1.85339 -1.37688e-18)
(15.5877 1.92983 2.95638e-19)
(15.5761 2.02317 -1.70996e-18)
(15.554 2.13324 -6.77077e-19)
(15.5188 2.25799 4.58973e-19)
(15.4688 2.39328 0)
(15.404 2.53341 -1.00498e-19)
(15.3267 2.67187 0)
(15.2407 2.80276 7.46357e-20)
(15.1514 2.92073 4.26975e-20)
(15.0627 3.02504 -1.51657e-21)
(14.9814 3.10518 -2.4403e-20)
(15.5351 1.6317 1.21006e-18)
(15.5377 1.63183 0)
(15.5408 1.6337 0)
(15.5452 1.63651 4.55095e-18)
(15.5516 1.64123 -3.23682e-18)
(15.5598 1.64896 -3.54634e-18)
(15.5697 1.66124 -4.93251e-18)
(15.5806 1.67973 3.79398e-18)
(15.5919 1.7061 0)
(15.6029 1.74216 1.71287e-18)
(15.6128 1.79 1.79397e-18)
(15.6208 1.85194 6.84733e-19)
(15.6252 1.93026 0)
(15.6235 2.02649 9.45936e-19)
(15.6124 2.14069 5.65843e-19)
(15.5888 2.27092 -3.24002e-19)
(15.5504 2.41293 -8.56979e-20)
(15.4967 2.56072 6.24457e-19)
(15.4295 2.70733 0)
(15.3522 2.84646 -1.71409e-19)
(15.2703 2.97215 9.63389e-20)
(15.1875 3.08396 1.42185e-19)
(15.1112 3.16929 -4.88541e-20)
(15.5352 1.6313 -1.41677e-19)
(15.5377 1.63123 0)
(15.5411 1.63289 0)
(15.5458 1.63516 -4.51126e-18)
(15.5531 1.63914 3.70937e-18)
(15.5627 1.64599 -4.26929e-19)
(15.5746 1.65743 2.90736e-18)
(15.5882 1.67523 2.46869e-19)
(15.6029 1.70112 -3.24353e-19)
(15.6181 1.73692 -1.92383e-18)
(15.6333 1.78467 -1.98003e-19)
(15.6479 1.8468 1.4054e-18)
(15.6604 1.92579 0)
(15.6684 2.02349 -1.33499e-18)
(15.6684 2.14033 1.21399e-19)
(15.6568 2.27461 -1.56488e-19)
(15.6308 2.42212 5.023e-19)
(15.5892 2.57672 -3.62374e-19)
(15.5334 2.73104 -5.1628e-19)
(15.4664 2.87846 -1.11009e-19)
(15.3935 3.01227 1.75086e-20)
(15.3181 3.13233 -1.30254e-19)
(15.2482 3.22375 -7.00575e-20)
(15.5352 1.63096 0)
(15.5378 1.63075 -2.54957e-19)
(15.5411 1.63216 2.95122e-18)
(15.5462 1.63381 -6.90974e-20)
(15.5543 1.63693 -3.72195e-18)
(15.565 1.64272 5.78442e-19)
(15.5786 1.65307 -1.18144e-19)
(15.5946 1.66987 -2.13156e-18)
(15.6122 1.69486 0)
(15.6311 1.72982 -2.25673e-18)
(15.6512 1.77675 1.83291e-19)
(15.6723 1.83811 1.02195e-19)
(15.6933 1.91661 0)
(15.7116 2.01443 1.30793e-18)
(15.7235 2.13241 -1.14657e-18)
(15.7248 2.26925 0)
(15.7122 2.42092 -4.94404e-19)
(15.684 2.5813 0)
(15.6409 2.74271 4.17439e-19)
(15.5855 2.89827 0)
(15.5231 3.04039 -1.6784e-19)
(15.4565 3.16937 1.09157e-19)
(15.394 3.2677 1.35941e-19)
(15.5352 1.63058 0)
(15.5377 1.63031 0)
(15.5409 1.63173 -3.78393e-20)
(15.5459 1.63296 -1.73367e-19)
(15.5544 1.63536 4.23433e-18)
(15.5659 1.64015 3.32219e-18)
(15.581 1.64939 0)
(15.5991 1.66514 1.99029e-18)
(15.6192 1.68926 0)
(15.641 1.72355 4.57397e-18)
(15.6643 1.7699 1.6365e-18)
(15.6891 1.83067 -1.19583e-18)
(15.7149 1.90853 -1.21559e-19)
(15.7396 2.00587 0)
(15.7598 2.12389 1.21993e-18)
(15.7712 2.26171 1.00798e-18)
(15.7702 2.41561 -8.89629e-20)
(15.7543 2.57962 6.74528e-19)
(15.7237 2.74586 5.87564e-19)
(15.6805 2.90736 0)
(15.6292 3.05564 1.2042e-19)
(15.5724 3.19166 1.16562e-20)
(15.5183 3.29589 -7.79866e-20)
(15.5353 1.63029 -9.09255e-21)
(15.5377 1.63 3.29421e-18)
(15.5407 1.63138 -2.66097e-18)
(15.5457 1.6322 0)
(15.5546 1.63395 7.28625e-20)
(15.5667 1.63793 6.19453e-20)
(15.5829 1.6463 -2.83881e-18)
(15.6025 1.66122 0)
(15.6245 1.68459 0)
(15.6485 1.71817 -2.28096e-18)
(15.6745 1.76376 -1.7371e-18)
(15.7029 1.82369 -4.95263e-20)
(15.7333 1.9007 1.3045e-18)
(15.7641 1.99735 -4.09331e-20)
(15.7917 2.11511 -1.77719e-19)
(15.812 2.25341 2.25642e-19)
(15.8208 2.40873 -7.03088e-19)
(15.8154 2.57521 -6.28136e-19)
(15.7955 2.74486 -6.63664e-19)
(15.7627 2.9107 -4.86787e-19)
(15.7214 3.06356 1.42029e-19)
(15.6733 3.20487 -6.14598e-19)
(15.627 3.31359 1.06239e-19)
(15.5353 1.63008 2.30441e-18)
(15.5377 1.62979 -3.68953e-18)
(15.5406 1.63114 8.13021e-20)
(15.5455 1.63152 2.47329e-18)
(15.5548 1.63261 -1.16304e-19)
(15.5674 1.63582 -3.36462e-18)
(15.5847 1.64335 5.3615e-18)
(15.6056 1.6575 1.32035e-19)
(15.6294 1.68015 -9.31001e-20)
(15.6554 1.71301 -2.39832e-18)
(15.684 1.75774 6.48043e-20)
(15.7157 1.81659 -1.58802e-18)
(15.7506 1.89232 -1.16097e-18)
(15.7871 1.98774 0)
(15.8222 2.10457 1.53446e-18)
(15.8513 2.2426 -2.2486e-18)
(15.8702 2.39855 -1.86895e-19)
(15.876 2.56675 6.83586e-19)
(15.8678 2.73906 -3.81176e-21)
(15.8467 2.90861 6.16283e-19)
(15.8169 3.06553 0)
(15.7793 3.21173 1.90822e-19)
(15.7424 3.32466 0)
(15.5354 1.62994 -3.90609e-18)
(15.5377 1.62965 -3.53113e-18)
(15.5404 1.63098 1.30284e-19)
(15.5453 1.63094 -4.84924e-18)
(15.5549 1.63137 2.15332e-18)
(15.568 1.63381 -9.80857e-20)
(15.5863 1.64051 -2.72422e-18)
(15.6085 1.6539 3.59732e-20)
(15.6339 1.67586 -1.01856e-19)
(15.6618 1.708 2.47169e-18)
(15.6928 1.75182 0)
(15.7277 1.80943 1.44905e-18)
(15.7668 1.88363 1.1796e-19)
(15.809 1.97738 -5.93285e-20)
(15.8513 2.0927 -1.58945e-18)
(15.8895 2.22976 -8.87111e-21)
(15.919 2.38552 6.51648e-19)
(15.9366 2.55455 -1.13918e-18)
(15.9413 2.72862 0)
(15.9333 2.90101 -4.55664e-19)
(15.9166 3.0612 5.85905e-19)
(15.891 3.21159 0)
(15.8651 3.32828 -2.95223e-19)
(15.5354 1.62988 1.4199e-18)
(15.5377 1.62958 3.37752e-20)
(15.5401 1.63089 1.28574e-19)
(15.5451 1.63044 2.33039e-18)
(15.5549 1.63022 -4.20593e-18)
(15.5685 1.6319 1.89779e-20)
(15.5876 1.63777 4.01206e-20)
(15.6111 1.65039 2.19426e-18)
(15.6379 1.67165 -4.80214e-20)
(15.6677 1.70306 0)
(15.7009 1.7459 1.94302e-18)
(15.7388 1.80216 4.58897e-20)
(15.782 1.87458 4.81535e-20)
(15.8298 1.96627 1.5045e-20)
(15.8794 2.07954 -1.624e-19)
(15.9268 2.21491 1.29476e-18)
(15.9674 2.36962 -7.82061e-19)
(15.9977 2.53849 -1.34402e-19)
(16.0162 2.71324 -2.43818e-19)
(16.0226 2.88738 6.46608e-19)
(16.0204 3.04973 -4.09645e-19)
(16.0086 3.2033 8.38217e-19)
(15.9951 3.32304 -5.25482e-19)
(15.5354 1.62991 1.48928e-18)
(15.5376 1.62957 3.39925e-18)
(15.5399 1.63086 1.30941e-20)
(15.5449 1.63001 2.45626e-18)
(15.5548 1.62914 4.22262e-18)
(15.5688 1.63008 -1.89949e-20)
(15.5888 1.63511 -4.04955e-20)
(15.6134 1.64696 2.25632e-20)
(15.6417 1.66749 -1.6543e-18)
(15.6731 1.69812 1.29121e-18)
(15.7084 1.73991 -2.04512e-18)
(15.7491 1.79466 -1.63852e-18)
(15.7962 1.86504 1.42479e-18)
(15.8495 1.95427 0)
(15.9066 2.0649 9.58886e-19)
(15.9634 2.19782 0)
(16.0155 2.35052 1.03735e-18)
(16.0592 2.51814 6.40178e-19)
(16.0926 2.69231 -9.0442e-21)
(16.1146 2.86684 -7.35112e-19)
(16.1283 3.02997 -9.00012e-21)
(16.1315 3.18531 1.30825e-20)
(16.1319 3.30705 -2.16647e-19)
(15.5354 1.63001 -4.02461e-20)
(15.5376 1.62962 2.84977e-20)
(15.5397 1.6309 -1.24871e-20)
(15.5447 1.62966 -2.45729e-18)
(15.5547 1.62816 -2.09647e-18)
(15.569 1.62835 0)
(15.5898 1.63252 2.44039e-20)
(15.6154 1.64359 -2.2146e-18)
(15.6451 1.66337 -1.72743e-20)
(15.6781 1.69318 -1.29255e-18)
(15.7154 1.73384 1.06377e-18)
(15.7588 1.78694 2.556e-18)
(15.8097 1.855 -1.37442e-18)
(15.8684 1.94133 1.1717e-18)
(15.9328 2.04868 1.15739e-19)
(15.9993 2.17829 1.51199e-20)
(16.0634 2.3279 -5.88276e-20)
(16.1212 2.49297 -2.08743e-19)
(16.1702 2.66507 1.41018e-19)
(16.209 2.83837 -2.41112e-19)
(16.2397 3.00052 -1.83156e-20)
(16.2593 3.15581 1.8714e-19)
(16.2748 3.27812 0)
(15.5354 1.63018 -6.25686e-20)
(15.5375 1.62971 0)
(15.5395 1.63099 0)
(15.5444 1.62937 -2.44664e-18)
(15.5544 1.62724 -2.12665e-18)
(15.5691 1.62669 1.77602e-18)
(15.5906 1.63 2.06e-20)
(15.6173 1.64026 -1.886e-20)
(15.6482 1.65926 1.69788e-18)
(15.6828 1.6882 -2.29433e-20)
(15.7219 1.72765 4.80294e-20)
(15.7678 1.77892 -8.68908e-19)
(15.8224 1.84439 0)
(15.8864 1.92735 -1.24373e-18)
(15.9582 2.03073 -2.06969e-18)
(16.0346 2.15609 -8.86982e-19)
(16.1109 2.3014 -5.57418e-19)
(16.1833 2.46243 0)
(16.2489 2.6307 0)
(16.3052 2.8008 4.24469e-19)
(16.3539 2.95986 2.83657e-19)
(16.3909 3.11283 -5.86137e-19)
(16.4226 3.23383 0)
(15.5353 1.63041 -1.71382e-18)
(15.5375 1.62984 1.399e-20)
(15.5394 1.63112 -5.81706e-21)
(15.5441 1.62913 2.43032e-18)
(15.5542 1.62639 4.22139e-18)
(15.5692 1.6251 -3.53047e-18)
(15.5913 1.62753 -2.07717e-20)
(15.6189 1.63695 -1.90333e-20)
(15.651 1.65514 2.50566e-20)
(15.6871 1.68317 0)
(15.728 1.72131 -1.05342e-18)
(15.7764 1.77059 9.09445e-19)
(15.8345 1.83314 0)
(15.9037 1.91223 0)
(15.9828 2.01088 9.84715e-19)
(16.0691 2.13094 6.05006e-20)
(16.1581 2.27056 6.33343e-19)
(16.2455 2.42586 4.93463e-19)
(16.3281 2.58824 -7.10932e-19)
(16.4026 2.75283 -2.51736e-19)
(16.4698 2.9063 9.88077e-19)
(16.5249 3.05424 -9.04562e-19)
(16.5731 3.17164 5.90368e-19)
(15.5353 1.63069 8.37201e-19)
(15.5374 1.63 1.49692e-18)
(15.5392 1.63129 1.27537e-20)
(15.5438 1.62895 -1.68701e-20)
(15.5539 1.62561 -2.12307e-18)
(15.5691 1.62358 1.79208e-18)
(15.5919 1.62511 -1.25361e-20)
(15.6204 1.63366 -2.67406e-21)
(15.6537 1.65099 2.52701e-20)
(15.6911 1.67805 1.17778e-20)
(15.7337 1.71479 -1.5477e-20)
(15.7844 1.7619 -9.10114e-19)
(15.8459 1.82122 8.34404e-19)
(15.9201 1.8959 -3.83472e-20)
(16.0065 1.98898 0)
(16.1027 2.10256 -9.86524e-20)
(16.2044 2.23493 8.04987e-20)
(16.3071 2.38256 -4.97364e-19)
(16.4069 2.53672 9.04674e-19)
(16.4997 2.69313 5.28336e-19)
(16.5856 2.83815 -3.55441e-19)
(16.6586 2.97799 -5.17067e-19)
(16.7234 3.08913 6.64215e-19)
(15.5353 1.63102 -2.43583e-20)
(15.5374 1.6302 -1.50869e-18)
(15.5391 1.6315 0)
(15.5435 1.62881 0)
(15.5535 1.62489 0)
(15.569 1.62211 0)
(15.5923 1.62272 1.2637e-20)
(15.6217 1.63038 -6.98334e-21)
(15.6561 1.6468 -1.2731e-20)
(15.6949 1.67283 1.18891e-20)
(15.7391 1.70807 -1.56277e-20)
(15.792 1.75282 0)
(15.8567 1.80856 -1.62733e-18)
(15.9357 1.87824 5.06214e-20)
(16.0292 1.96484 -1.07615e-19)
(16.1352 2.07064 1.03668e-18)
(16.2494 2.19404 -8.45035e-20)
(16.3672 2.33182 1.45318e-19)
(16.4839 2.47518 -1.67276e-19)
(16.5947 2.62051 2.92608e-19)
(16.6987 2.75399 -4.12266e-19)
(16.7889 2.88243 0)
(16.8695 2.98442 3.87528e-19)
(15.5352 1.63138 -1.65094e-18)
(15.5373 1.63042 -7.30863e-19)
(15.5389 1.63174 -9.23208e-21)
(15.5432 1.62873 1.23082e-18)
(15.5531 1.62423 1.0661e-18)
(15.5688 1.62069 8.05605e-21)
(15.5926 1.62036 -1.49315e-18)
(15.6228 1.62708 1.15859e-18)
(15.6583 1.64254 8.57146e-19)
(15.6984 1.66748 0)
(15.7441 1.70111 2.02349e-20)
(15.799 1.7433 -9.75174e-19)
(15.8667 1.7951 8.52718e-19)
(15.9503 1.85915 6.84317e-19)
(16.0505 1.93829 6.10062e-19)
(16.1659 2.0349 0)
(16.2923 2.14742 0)
(16.4246 2.27303 -5.85312e-19)
(16.5576 2.40282 -6.35251e-19)
(16.6853 2.534 3.16108e-19)
(16.8061 2.65279 2.23581e-19)
(16.912 2.76658 3.10555e-19)
(17.0065 2.85648 -4.27548e-19)
(15.5352 1.63176 8.248e-19)
(15.5373 1.63066 7.33327e-19)
(15.5388 1.63199 -6.41891e-21)
(15.5428 1.62866 7.42726e-21)
(15.5527 1.62359 -1.06548e-18)
(15.5685 1.61929 -9.05075e-19)
(15.5928 1.618 7.24441e-19)
(15.6238 1.62375 -1.14771e-18)
(15.6603 1.63822 -8.54096e-19)
(15.7016 1.662 -1.97576e-20)
(15.7487 1.69391 0)
(15.8055 1.73334 9.48474e-19)
(15.8759 1.7808 8.44874e-19)
(15.9636 1.83856 -7.25457e-19)
(16.0701 1.90917 -5.23058e-19)
(16.1944 1.99508 -2.55895e-19)
(16.3322 2.09474 -2.18028e-19)
(16.4781 2.20574 1.20164e-18)
(16.6259 2.31916 0)
(16.7688 2.43321 0)
(16.9042 2.53436 2.52487e-19)
(17.0234 2.63058 -6.33621e-19)
(17.1298 2.70558 -4.65578e-19)
(15.5351 1.63219 -7.6645e-19)
(15.5372 1.63096 0)
(15.5386 1.63233 0)
(15.5424 1.62872 -2.45586e-18)
(15.5522 1.6231 1.06084e-18)
(15.568 1.61803 9.25223e-19)
(15.5927 1.61571 -4.93136e-21)
(15.6245 1.62038 5.7122e-19)
(15.6621 1.63374 2.04691e-20)
(15.7046 1.65627 -6.86039e-19)
(15.7531 1.68638 2.04436e-20)
(15.8115 1.72288 -2.68828e-20)
(15.8842 1.76568 -8.45023e-19)
(15.9756 1.8165 7.49523e-19)
(16.0876 1.87752 5.94261e-19)
(16.2199 1.95118 -5.38608e-19)
(16.368 2.03592 4.98403e-19)
(16.5259 2.12988 -6.16145e-19)
(16.6867 2.22422 0)
(16.8423 2.31839 0)
(16.9896 2.39945 -2.38744e-19)
(17.1186 2.47592 1.73805e-19)
(17.2333 2.53405 -4.82883e-19)
(15.5349 1.63251 3.22005e-20)
(15.5373 1.6311 -7.48761e-19)
(15.5385 1.63239 0)
(15.5421 1.62844 6.14237e-19)
(15.5519 1.62226 -2.14238e-18)
(15.568 1.61645 8.1851e-21)
(15.593 1.61324 -1.5973e-20)
(15.6253 1.617 -5.89834e-19)
(15.6635 1.6293 1.29792e-20)
(15.7069 1.65044 6.86951e-19)
(15.7565 1.67839 -1.58319e-20)
(15.8165 1.71147 -4.60475e-19)
(15.8914 1.749 -5.57581e-20)
(15.9861 1.79211 -7.07709e-19)
(16.1031 1.84249 -6.86378e-19)
(16.2423 1.90249 4.93085e-20)
(16.399 1.97048 0)
(16.5669 2.0454 -8.76746e-20)
(16.7377 2.11871 1.14192e-19)
(16.9025 2.19109 0)
(17.0577 2.25051 2.51012e-19)
(17.1928 2.30564 -1.69303e-19)
(17.3121 2.34562 0)
(15.535 1.63326 7.40636e-19)
(15.537 1.63179 7.48952e-19)
(15.5382 1.63335 0)
(15.5416 1.62932 6.12874e-19)
(15.5511 1.62268 2.15496e-18)
(15.5672 1.61605 9.29159e-19)
(15.5926 1.61155 1.51515e-18)
(15.6258 1.61398 0)
(15.6653 1.62528 8.79842e-19)
(15.7099 1.64581 -6.73919e-19)
(15.7603 1.67305 5.45472e-19)
(15.821 1.70431 4.82421e-19)
(15.8967 1.73769 -8.03507e-21)
(15.9932 1.77323 1.05361e-20)
(16.1135 1.81188 -6.54985e-19)
(16.2579 1.85595 5.3369e-19)
(16.4217 1.90413 0)
(16.5975 1.95625 3.30088e-19)
(16.7761 2.00463 0)
(16.9474 2.05138 0)
(17.1073 2.08625 -2.44746e-19)
(17.2452 2.11787 -5.29204e-19)
(17.3659 2.13834 4.58362e-19)
(15.5349 1.63372 0)
(15.537 1.63219 -2.77677e-23)
(15.5381 1.63382 8.68897e-23)
(15.5413 1.62971 -6.15709e-19)
(15.5509 1.62283 -5.3575e-19)
(15.5669 1.61575 -9.2842e-19)
(15.5925 1.61053 -7.59541e-19)
(15.6261 1.61211 -6.19244e-22)
(15.6661 1.62246 -4.39743e-19)
(15.7113 1.642 4.37514e-21)
(15.7624 1.66782 -4.0182e-21)
(15.8239 1.69662 0)
(15.9007 1.72552 8.03311e-21)
(15.9986 1.7535 -1.05264e-20)
(16.1213 1.78055 9.5748e-19)
(16.2692 1.80855 3.0897e-20)
(16.4373 1.83626 0)
(16.6174 1.86446 9.48815e-20)
(16.7996 1.88678 -1.16022e-19)
(16.9728 1.90684 0)
(17.1325 1.91674 0)
(17.2688 1.92494 3.44026e-19)
(17.3872 1.92629 -2.39603e-19)
(15.5349 1.63418 6.80539e-19)
(15.537 1.63257 7.70491e-19)
(15.5381 1.63426 0)
(15.5411 1.63007 6.15981e-19)
(15.5506 1.62294 -5.44168e-19)
(15.5667 1.61542 -9.45459e-19)
(15.5925 1.60953 7.71137e-19)
(15.6265 1.61027 -5.91823e-19)
(15.6671 1.61969 -4.39313e-19)
(15.7131 1.63815 1.00204e-18)
(15.765 1.66243 -5.41579e-19)
(15.8272 1.68861 -4.68717e-19)
(15.9045 1.71289 -4.2619e-19)
(16.0032 1.73318 0)
(16.1268 1.74848 -3.27742e-19)
(16.276 1.76022 5.48843e-19)
(16.4455 1.76736 2.99801e-20)
(16.6264 1.77177 -3.70002e-19)
(16.8079 1.76881 0)
(16.9787 1.76355 0)
(17.1341 1.7505 0)
(17.2653 1.73772 -5.20302e-19)
(17.3786 1.72221 4.6502e-19)
(15.5348 1.63465 -6.81012e-19)
(15.537 1.63294 8.39961e-21)
(15.538 1.6347 0)
(15.5409 1.63043 -6.25018e-19)
(15.5504 1.62305 -6.02238e-23)
(15.5665 1.6151 1.42299e-18)
(15.5925 1.60853 -1.54759e-18)
(15.6269 1.60844 1.77907e-18)
(15.6682 1.61692 -4.65274e-22)
(15.715 1.6343 -3.31477e-19)
(15.7676 1.65702 -2.66721e-19)
(15.8303 1.68057 4.69974e-19)
(15.9078 1.70021 4.21217e-19)
(16.0064 1.7128 -3.77728e-19)
(16.1296 1.71632 5.94988e-21)
(16.278 1.71176 -5.54875e-19)
(16.4461 1.69852 0)
(16.6242 1.6797 0)
(16.8013 1.65271 2.47462e-19)
(16.9661 1.624 0)
(17.1141 1.59031 0)
(17.2378 1.55917 8.29216e-20)
(17.3442 1.52915 2.27235e-19)
(15.5348 1.63512 0)
(15.5369 1.63332 -7.7984e-19)
(15.5379 1.63514 1.74598e-23)
(15.5407 1.63079 -4.98373e-21)
(15.5501 1.62317 -4.00478e-23)
(15.5663 1.6148 -9.5778e-19)
(15.5925 1.60754 7.76393e-19)
(15.6273 1.60662 -1.18718e-18)
(15.6692 1.61415 -4.34079e-19)
(15.7167 1.63043 0)
(15.77 1.65159 2.65333e-19)
(15.833 1.67253 9.50265e-22)
(15.9104 1.68761 2.72557e-22)
(16.008 1.69257 3.75844e-19)
(16.1293 1.68444 0)
(16.2749 1.66383 2.78403e-19)
(16.4388 1.63076 -6.29052e-21)
(16.611 1.58971 0)
(16.7805 1.54032 -2.46731e-19)
(16.9365 1.49034 0)
(17.0748 1.43845 0)
(17.1893 1.39157 0)
(17.2876 1.34928 -1.17428e-21)
(15.5348 1.6356 0)
(15.5369 1.63371 3.98171e-19)
(15.5378 1.63559 -3.21971e-24)
(15.5406 1.63117 6.30591e-19)
(15.5499 1.62331 5.642e-19)
(15.566 1.61451 9.63629e-19)
(15.5924 1.60657 0)
(15.6277 1.6048 -5.90706e-19)
(15.6701 1.61136 8.63793e-19)
(15.7183 1.62653 -7.04153e-24)
(15.7721 1.64614 2.56853e-19)
(15.8353 1.66452 -2.24362e-19)
(15.912 1.67514 0)
(16.0079 1.67267 0)
(16.126 1.65322 3.23479e-19)
(16.2666 1.61707 -2.73076e-19)
(16.4238 1.56504 0)
(16.5874 1.50313 -3.30049e-19)
(16.7467 1.43324 -2.46005e-19)
(16.8916 1.36428 0)
(17.0185 1.29662 3.9587e-21)
(17.1228 1.23644 2.68145e-22)
(17.2123 1.18393 -1.19511e-19)
(15.5348 1.6361 3.76846e-24)
(15.5369 1.63411 -7.99787e-19)
(15.5378 1.63604 -9.45736e-24)
(15.5404 1.63156 0)
(15.5496 1.62347 2.49933e-21)
(15.5658 1.61425 -9.66913e-19)
(15.5923 1.60562 -1.75777e-22)
(15.6279 1.60299 5.90668e-19)
(15.671 1.60856 -4.29554e-19)
(15.7198 1.62262 3.15328e-19)
(15.7741 1.64068 -5.2394e-21)
(15.8373 1.65657 4.44252e-19)
(15.9129 1.66288 -4.01366e-19)
(16.0061 1.65328 1.26038e-21)
(16.1197 1.623 -6.44928e-19)
(16.2534 1.57207 2.76629e-19)
(16.4015 1.50227 -1.36256e-20)
(16.554 1.42114 3.40862e-19)
(16.7008 1.33282 2.44103e-19)
(16.8329 1.24721 0)
(16.9472 1.16606 1.19722e-19)
(17.0408 1.09478 0)
(17.121 1.03382 -5.2824e-20)
(15.5348 1.6366 0)
(15.5369 1.63451 4.01604e-19)
(15.5377 1.63651 3.42981e-19)
(15.5402 1.63197 3.43092e-23)
(15.5494 1.62365 -1.13553e-18)
(15.5655 1.61401 4.84159e-19)
(15.5922 1.60469 0)
(15.6281 1.60118 0)
(15.6717 1.60574 -2.21103e-22)
(15.7212 1.61868 -3.1502e-19)
(15.7759 1.63523 -5.44784e-21)
(15.8389 1.6487 -2.19479e-19)
(15.913 1.65092 3.99436e-19)
(16.0029 1.63458 0)
(16.1105 1.59413 3.18649e-19)
(16.2356 1.52945 -2.67838e-19)
(16.3724 1.4433 1.96315e-19)
(16.5116 1.3448 1.90328e-20)
(16.6441 1.24019 0)
(16.762 1.14019 0)
(16.863 1.04764 -5.85071e-20)
(16.9455 0.967168 -1.58815e-19)
(17.0162 0.899272 1.08977e-19)
(15.5348 1.63711 0)
(15.5369 1.63491 -1.44091e-23)
(15.5377 1.63697 -3.43117e-19)
(15.54 1.63238 3.21151e-19)
(15.5491 1.62384 5.68468e-19)
(15.5652 1.61378 1.07034e-22)
(15.592 1.60377 3.86697e-19)
(15.6283 1.59938 2.89323e-19)
(15.6724 1.60292 -4.13864e-19)
(15.7225 1.61472 0)
(15.7775 1.62978 -5.49243e-21)
(15.8401 1.64095 -2.09246e-19)
(15.9125 1.63933 0)
(15.9983 1.61675 -6.59096e-21)
(16.0988 1.56696 3.14433e-19)
(16.2134 1.48975 0)
(16.337 1.38891 -3.30665e-20)
(16.461 1.27504 -5.64415e-21)
(16.5778 1.15628 2.88631e-19)
(16.6805 1.04403 0)
(16.7677 0.941949 0)
(16.839 0.853918 8.00722e-20)
(16.9 0.780361 -2.6702e-19)
(15.5348 1.63762 -7.59784e-24)
(15.5369 1.63532 1.00304e-23)
(15.5376 1.63745 0)
(15.5398 1.63281 3.21888e-19)
(15.5488 1.62406 -2.86403e-22)
(15.5649 1.61359 2.13907e-22)
(15.5918 1.60287 -3.86601e-19)
(15.6284 1.59759 -2.8965e-19)
(15.6731 1.60009 4.13912e-19)
(15.7238 1.61076 -2.98306e-19)
(15.779 1.62435 -2.41163e-19)
(15.8411 1.63334 2.11145e-19)
(15.9113 1.62818 1.82384e-19)
(15.9924 1.59994 1.62127e-19)
(16.0847 1.54181 -3.08364e-19)
(16.1874 1.45351 1.43802e-20)
(16.2959 1.33982 -2.34977e-19)
(16.4032 1.21265 -1.17799e-19)
(16.5029 1.08188 -1.1956e-19)
(16.5897 0.959387 8.56333e-20)
(16.6629 0.84943 -1.10583e-19)
(16.7228 0.755228 0)
(16.7742 0.677103 1.02987e-19)
(15.5348 1.63814 0)
(15.5369 1.63574 4.05912e-19)
(15.5376 1.63792 3.42326e-19)
(15.5396 1.63325 -3.21524e-19)
(15.5485 1.62429 2.84712e-19)
(15.5646 1.61341 0)
(15.5915 1.602 4.04167e-22)
(15.6285 1.59581 -5.31894e-22)
(15.6736 1.59725 2.02363e-19)
(15.7249 1.60678 4.45995e-19)
(15.7803 1.61895 -2.28275e-19)
(15.8418 1.6259 -1.40635e-21)
(15.9095 1.61753 -5.88173e-21)
(15.9853 1.58431 -1.68491e-19)
(16.0684 1.51898 0)
(16.1578 1.42121 2.42948e-19)
(16.2499 1.29664 -1.95419e-19)
(16.339 1.15834 1.54683e-19)
(16.4207 1.01764 5.59699e-20)
(16.491 0.886768 6.53903e-21)
(16.5499 0.770394 -1.07845e-19)
(16.5984 0.671214 7.42367e-20)
(16.64 0.589548 1.04009e-19)
(15.5348 1.63867 1.62653e-19)
(15.5368 1.63616 -1.90377e-22)
(15.5375 1.63841 -3.42482e-19)
(15.5394 1.6337 -3.21735e-19)
(15.5483 1.62454 -5.69629e-19)
(15.5642 1.61325 -4.81903e-19)
(15.5913 1.60114 -4.02435e-22)
(15.6285 1.59403 5.29584e-22)
(15.6742 1.59441 -2.02387e-19)
(15.726 1.60279 -1.47034e-19)
(15.7815 1.61358 4.53135e-19)
(15.8422 1.61864 -1.91709e-19)
(15.9072 1.60745 -1.7896e-19)
(15.9771 1.57 1.56571e-19)
(16.0503 1.49872 -1.02935e-20)
(16.1253 1.39325 -2.1268e-19)
(16.1995 1.25995 2.00071e-19)
(16.2694 1.11273 -2.19158e-19)
(16.3323 0.96413 -5.91181e-20)
(16.3855 0.826626 0)
(16.4299 0.705162 1.1146e-19)
(16.467 0.602105 -1.45687e-19)
(16.4989 0.517954 2.0013e-19)
(15.5348 1.6392 -1.627e-19)
(15.5368 1.63658 -6.08882e-19)
(15.5374 1.63889 -3.41947e-19)
(15.5393 1.63416 3.22554e-19)
(15.548 1.6248 2.84874e-19)
(15.5639 1.61312 4.81987e-19)
(15.591 1.60031 3.82931e-19)
(15.6285 1.59227 0)
(15.6746 1.59157 1.98807e-19)
(15.7269 1.5988 -1.42449e-19)
(15.7826 1.60825 -2.23792e-19)
(15.8424 1.6116 1.91667e-19)
(15.9044 1.59798 0)
(15.9682 1.55712 -1.4506e-19)
(16.0306 1.48125 1.16769e-19)
(16.0903 1.37003 -1.11571e-19)
(16.1457 1.23024 5.09444e-20)
(16.1953 1.07638 7.8736e-20)
(16.2386 0.921872 -2.14314e-19)
(16.2744 0.779406 1.44459e-19)
(16.3044 0.654148 0)
(16.33 0.548233 -2.93414e-19)
(16.3524 0.462424 4.19138e-19)
(15.5349 1.63974 0)
(15.5368 1.637 2.02924e-19)
(15.5374 1.63938 3.4197e-19)
(15.5391 1.63463 -3.22694e-19)
(15.5477 1.62509 -3.76039e-23)
(15.5635 1.61301 2.13668e-22)
(15.5907 1.5995 -1.91479e-19)
(15.6285 1.59052 0)
(15.6751 1.58872 -1.9883e-19)
(15.7278 1.59481 2.27233e-21)
(15.7835 1.60297 0)
(15.8424 1.60477 -8.91225e-20)
(15.9013 1.58917 0)
(15.9585 1.54576 1.09274e-20)
(16.0098 1.46678 -2.52154e-19)
(16.0535 1.35185 8.70886e-20)
(16.0892 1.20796 4.86457e-20)
(16.1177 1.04978 -1.95971e-19)
(16.1408 0.891386 1.03254e-19)
(16.1588 0.745569 1.51172e-19)
(16.1743 0.617658 -2.44541e-19)
(16.1884 0.509566 2.10915e-19)
(16.2008 0.422429 -7.74202e-19)
(15.5349 1.64028 -1.56955e-19)
(15.5368 1.63743 2.02888e-19)
(15.5373 1.63988 -1.71166e-19)
(15.5389 1.63511 -1.63566e-22)
(15.5474 1.62539 2.86963e-22)
(15.5631 1.61293 -4.77323e-22)
(15.5903 1.59871 -1.91285e-19)
(15.6284 1.58879 1.09584e-21)
(15.6754 1.58587 -7.49184e-22)
(15.7287 1.59082 2.34348e-21)
(15.7844 1.59774 -1.0303e-19)
(15.8422 1.59818 8.58363e-20)
(15.8979 1.58104 4.28279e-21)
(15.9485 1.53599 -1.03135e-20)
(15.9883 1.45543 1.38334e-19)
(16.0156 1.33898 0)
(16.031 1.19348 8.05376e-20)
(16.0377 1.03342 1.3277e-19)
(16.0399 0.873196 -1.02097e-19)
(16.0398 0.725492 2.77219e-19)
(16.0404 0.595703 -1.37482e-19)
(16.0422 0.485907 3.20681e-20)
(16.0442 0.397966 4.01995e-19)
(15.5349 1.64083 3.1197e-19)
(15.5368 1.63787 -2.02963e-19)
(15.5373 1.64037 -2.94391e-22)
(15.5387 1.6356 0)
(15.5471 1.62571 0)
(15.5628 1.61286 -2.42092e-19)
(15.59 1.59795 -1.91301e-19)
(15.6283 1.58707 0)
(15.6757 1.58303 -7.9122e-22)
(15.7294 1.58683 1.38878e-19)
(15.7851 1.59256 1.0484e-19)
(15.8419 1.59183 -2.38198e-21)
(15.8943 1.5736 -5.48587e-21)
(15.9381 1.52786 1.68256e-20)
(15.9665 1.4473 -1.26219e-20)
(15.9772 1.33158 0)
(15.9719 1.18713 -1.12395e-19)
(15.9563 1.02775 9.3092e-21)
(15.9371 0.86779 -2.70073e-19)
(15.9181 0.71956 1.25432e-19)
(15.9029 0.588632 1.90401e-19)
(15.8921 0.47821 -3.0665e-19)
(15.8841 0.391162 0)
(15.535 1.64138 -3.08032e-19)
(15.5368 1.6383 1.96518e-23)
(15.5373 1.64087 1.71624e-19)
(15.5386 1.6361 0)
(15.5468 1.62605 0)
(15.5624 1.61283 -2.27865e-22)
(15.5896 1.59721 3.82423e-19)
(15.6281 1.58536 0)
(15.676 1.58019 9.62715e-20)
(15.7301 1.58285 0)
(15.7858 1.58745 0)
(15.8415 1.58572 -2.93196e-21)
(15.8906 1.56688 3.83847e-21)
(15.9278 1.52137 4.88364e-20)
(15.9448 1.44242 1.16918e-20)
(15.9391 1.32977 -2.51575e-20)
(15.9131 1.18916 1.08056e-19)
(15.8748 1.03318 0)
(15.8334 0.875697 8.78809e-20)
(15.7945 0.728592 0)
(15.7633 0.597971 4.17888e-20)
(15.7406 0.488795 5.91346e-20)
(15.7234 0.404512 0)
(15.535 1.64193 2.28566e-19)
(15.5368 1.63874 -1.0189e-19)
(15.5372 1.64138 0)
(15.5384 1.63661 1.6352e-19)
(15.5465 1.6264 -1.44069e-19)
(15.562 1.61281 2.4268e-19)
(15.5892 1.59649 -1.91466e-19)
(15.6279 1.58367 -1.40519e-19)
(15.6761 1.57735 -9.55444e-20)
(15.7307 1.57887 -1.08415e-21)
(15.7863 1.5824 1.4217e-21)
(15.841 1.57986 7.30257e-20)
(15.887 1.56085 4.73029e-21)
(15.9177 1.5165 -7.21347e-20)
(15.9237 1.44076 1.07013e-20)
(15.9021 1.33356 0)
(15.8556 1.19973 0)
(15.7943 1.05009 0)
(15.7301 0.897695 0)
(15.671 0.754092 -2.72302e-20)
(15.6241 0.625671 -1.90604e-19)
(15.5899 0.518672 1.86262e-19)
(15.5623 0.436678 0)
(15.535 1.64248 -7.55431e-20)
(15.5368 1.63918 2.04049e-19)
(15.5372 1.64188 0)
(15.5382 1.63713 -1.63645e-19)
(15.5463 1.62677 2.88904e-19)
(15.5616 1.61282 0)
(15.5888 1.5958 0)
(15.6277 1.58201 1.39978e-19)
(15.6763 1.57452 0)
(15.7312 1.5749 -6.25446e-20)
(15.7868 1.57741 -4.58614e-20)
(15.8404 1.57424 -3.87684e-20)
(15.8834 1.55549 5.6434e-20)
(15.908 1.5132 0)
(15.9037 1.44224 0)
(15.867 1.34287 2.04686e-20)
(15.8007 1.21887 -2.68878e-20)
(15.7165 1.0789 0)
(15.6291 0.934895 -3.31523e-20)
(15.5497 0.797405 2.7234e-20)
(15.4865 0.671691 1.52946e-19)
(15.4373 0.565406 -1.97445e-19)
(15.3952 0.483526 0)
(15.5351 1.64303 1.48026e-23)
(15.5368 1.63962 -2.04616e-19)
(15.5372 1.64239 -5.31049e-23)
(15.5381 1.63765 -8.22706e-20)
(15.546 1.62716 -1.44834e-19)
(15.5612 1.61286 1.21965e-19)
(15.5884 1.59514 3.48986e-22)
(15.6274 1.58036 -7.01532e-20)
(15.6763 1.5717 9.50257e-20)
(15.7316 1.57094 6.26201e-20)
(15.7872 1.57247 4.44819e-20)
(15.8398 1.56885 -3.42433e-20)
(15.88 1.55077 -5.64249e-20)
(15.8989 1.51137 -6.5382e-21)
(15.8853 1.4467 8.56006e-21)
(15.8346 1.35747 1.78729e-20)
(15.7498 1.24654 -2.34771e-20)
(15.6434 1.12007 0)
(15.5328 0.988205 3.31392e-20)
(15.4316 0.858607 0)
(15.3476 0.734587 -1.74678e-20)
(15.2786 0.628677 0)
(15.2208 0.54926 -7.38398e-21)
(15.5351 1.64359 3.63727e-20)
(15.5368 1.64006 1.02423e-19)
(15.5371 1.64289 8.71793e-20)
(15.5379 1.63819 -1.21825e-22)
(15.5457 1.62756 -2.54118e-22)
(15.5607 1.61291 5.61096e-22)
(15.5879 1.59451 -9.59379e-20)
(15.6271 1.57873 -3.04354e-22)
(15.6763 1.56889 -9.35635e-20)
(15.732 1.56699 -9.77038e-22)
(15.7876 1.56759 4.18458e-20)
(15.8393 1.56366 0)
(15.8769 1.54664 -3.46473e-21)
(15.8907 1.51089 4.53419e-21)
(15.8688 1.45388 1.49117e-20)
(15.8058 1.37704 0)
(15.7042 1.28248 0)
(15.577 1.17377 -1.54254e-20)
(15.4429 1.0578 0)
(15.3165 0.937736 8.46445e-20)
(15.2075 0.817743 -9.5521e-20)
(15.1204 0.719283 9.19106e-21)
(15.054 0.652024 2.35198e-19)
(15.5352 1.64414 -7.2331e-20)
(15.5368 1.6405 -5.15465e-20)
(15.5371 1.6434 -1.30874e-19)
(15.5377 1.63873 8.29675e-20)
(15.5454 1.62798 7.28639e-20)
(15.5603 1.613 -1.83991e-19)
(15.5874 1.5939 9.59985e-20)
(15.6267 1.57713 6.88527e-20)
(15.6763 1.56608 1.43112e-21)
(15.7323 1.56305 -9.3848e-22)
(15.7879 1.56277 -4.05613e-20)
(15.8387 1.55867 -1.35084e-20)
(15.8741 1.54303 1.73578e-20)
(15.8836 1.51161 1.95075e-20)
(15.8548 1.46348 -1.49059e-20)
(15.7814 1.40108 0)
(15.6657 1.32613 0)
(15.5198 1.23951 -2.69336e-20)
(15.3614 1.14356 3.95228e-20)
(15.2081 1.03814 0)