/*--------------------------------*- C++ -*----------------------------------*\
  =========                 |
  \\      /  F ield         | OpenFOAM: The Open Source CFD Toolbox
   \\    /   O peration     | Website:  https://openfoam.org
    \\  /    A nd           | Version:  7
     \\/     M anipulation  |
\*---------------------------------------------------------------------------*/
FoamFile
{
    version     2.0;
    format      ascii;
    class       volScalarField;
    location    "50";
    object      yPlus;
}
// * * * * * * * * * * * * * * * * * * * * * * * * * * * * * * * * * * * * * //

dimensions      [0 0 0 0 0 0 0];

internalField   uniform 0;

boundaryField
{
    inlet
    {
        type            calculated;
        value           uniform 0;
    }
    outlet
    {
        type            calculated;
        value           uniform 0;
    }
    suction_side
    {
        type            calculated;
        value           nonuniform List<scalar> 
56
(
6.34637
6.42232
6.7399
6.81693
7.29595
7.39582
8.17709
8.29629
9.59163
9.72875
11.5505
13.5028
15.7376
20.6723
32.8207
42.6171
47.0465
45.6912
41.7179
36.9965
31.9201
33.7587
38.4165
41.7973
43.4182
43.8985
43.7193
43.1541
42.29
41.2675
40.2009
39.161
38.1527
37.1762
36.2373
35.3264
34.3951
33.3854
32.2855
31.0747
29.7202
28.3477
26.8475
25.3082
23.3546
21.5705
19.3426
18.277
18.2701
19.9577
21.3308
22.3947
22.3483
23.4316
23.8189
23.9389
)
;
    }
    pressure_side
    {
        type            calculated;
        value           nonuniform List<scalar> 
56
(
35.1
35.283
35.3918
35.6461
35.8878
36.1759
36.4071
36.6157
36.8294
36.9698
37.0927
37.2131
37.3377
37.4634
37.5902
37.7076
37.8215
37.9384
38.0636
38.1975
38.3381
38.4779
38.594
38.6522
38.6097
38.4634
38.2757
38.1681
38.2776
38.7522
39.6944
41.052
42.6235
43.9918
44.8544
45.2121
44.7528
43.0893
40.4124
36.5817
31.762
26.1678
20.0304
13.5147
8.70504
7.52626
5.80716
5.25117
4.83092
4.65073
4.76551
4.95747
5.28085
5.50207
5.92886
6.06134
)
;
    }
    trailing_edge
    {
        type            calculated;
        value           nonuniform List<scalar> 2(134.816 117.832);
    }
    defaultFaces
    {
        type            empty;
    }
}


// ************************************************************************* //
