/*--------------------------------*- C++ -*----------------------------------*\
  =========                 |
  \\      /  F ield         | OpenFOAM: The Open Source CFD Toolbox
   \\    /   O peration     | Website:  https://openfoam.org
    \\  /    A nd           | Version:  7
     \\/     M anipulation  |
\*---------------------------------------------------------------------------*/
FoamFile
{
    version     2.0;
    format      ascii;
    class       volScalarField;
    location    "50";
    object      nut;
}
// * * * * * * * * * * * * * * * * * * * * * * * * * * * * * * * * * * * * * //

dimensions      [0 2 -1 0 0 0 0];

internalField   nonuniform List<scalar> 
12842
(
0.00181065
0.00179932
0.00176327
0.00176824
0.00176068
0.00177015
0.00175918
0.00176524
0.00176349
0.00175106
0.00176666
0.0017838
0.00180358
0.00183761
0.00100391
0.000530474
0.000326126
0.000228529
0.000172097
0.000136179
0.000113591
0.000100659
8.49353e-05
0.00180287
0.00180043
0.00179136
0.00178063
0.00176785
0.00177413
0.0017597
0.00176845
0.00176393
0.00175885
0.00177974
0.00180666
0.00182817
0.00187013
0.00115201
0.000575963
0.000348814
0.000238523
0.00017682
0.00013906
0.000115737
0.000102666
8.51636e-05
0.00181122
0.00178058
0.00177172
0.00176947
0.00176309
0.00177353
0.00176256
0.00177411
0.00176485
0.00176916
0.00178314
0.00181207
0.00185609
0.00191225
0.00126437
0.000614311
0.000366318
0.000249335
0.000184019
0.000143633
0.000117885
0.000105962
8.75079e-05
0.00180332
0.00179095
0.00178124
0.00176607
0.00176238
0.00176628
0.0017626
0.00177409
0.00176536
0.00178758
0.00181256
0.0018421
0.00187997
0.00193321
0.00132528
0.000631728
0.000371795
0.000251947
0.000185202
0.000146491
0.000120428
0.000108351
9.01367e-05
0.00181021
0.00177441
0.00178243
0.00176732
0.00176558
0.00176671
0.00176458
0.00177478
0.00175989
0.0017839
0.00181596
0.00186458
0.00191906
0.00197976
0.00129167
0.000623853
0.000372577
0.00025346
0.000186162
0.000149048
0.000123417
0.000111939
9.14751e-05
0.00180199
0.00177697
0.00177539
0.0017628
0.00176393
0.00176032
0.00176545
0.00177239
0.00177161
0.00179698
0.00183748
0.001896
0.00195211
0.00198951
0.00132146
0.000630533
0.000373203
0.000252957
0.000187746
0.000149387
0.000125552
0.000118402
9.71629e-05
0.00180788
0.00177275
0.00178188
0.0017628
0.00176553
0.00175951
0.00176601
0.00177434
0.00177058
0.00180825
0.00186096
0.00192687
0.0019849
0.00202648
0.0011472
0.00058205
0.000355282
0.0002467
0.000182837
0.000148716
0.000125362
0.000118957
0.000100464
0.0017985
0.00176964
0.00177638
0.00176316
0.00176474
0.00175646
0.00176541
0.00177171
0.00178779
0.00182365
0.00188438
0.0019546
0.00200562
0.00202314
0.00126751
0.000613873
0.00036748
0.000250646
0.000191828
0.000154823
0.000131612
0.00012545
0.000106903
0.00180397
0.00176697
0.00177875
0.00176387
0.0017654
0.00175467
0.00176525
0.00177294
0.00179667
0.00184348
0.0019162
0.00199567
0.00204246
0.00205026
0.00124445
0.000626115
0.000378684
0.000262408
0.000195535
0.000161821
0.000138618
0.000132644
0.000113206
0.00179492
0.00176636
0.0017757
0.00176488
0.00176608
0.00175376
0.00176469
0.0017736
0.0018108
0.00186021
0.00194536
0.00201698
0.00204611
0.00203512
0.00112151
0.000598877
0.000372158
0.000255408
0.000194175
0.000161787
0.000136537
0.000130617
0.000114302
0.00179588
0.00176228
0.00177433
0.00176529
0.00176446
0.0017533
0.001765
0.00177049
0.00181687
0.00187825
0.00197144
0.00204303
0.0020622
0.00193474
0.00101967
0.000576567
0.000370052
0.000261585
0.000197696
0.000168377
0.000145246
0.000139893
0.000123485
0.00179196
0.00176419
0.00177207
0.00176595
0.00176425
0.00175303
0.00176496
0.00177618
0.00182603
0.00189445
0.00199254
0.00205667
0.00206324
0.00175959
0.000959543
0.000564866
0.000374465
0.000268331
0.00020851
0.000183691
0.000155044
0.000149729
0.000131251
0.00178757
0.00176198
0.00176997
0.00176534
0.00176267
0.00175351
0.00176531
0.00177884
0.00183265
0.00191612
0.00201795
0.00207879
0.00206972
0.00161622
0.00092956
0.000577828
0.000396587
0.000286796
0.000222576
0.000192825
0.000165104
0.000166702
0.000152405
0.00178631
0.00176349
0.00176751
0.00176503
0.0017615
0.00175397
0.00176576
0.00178716
0.00184597
0.00193393
0.00203398
0.00208882
0.00206613
0.0015056
0.000890949
0.000573297
0.000403871
0.000302443
0.000237034
0.000213615
0.000188933
0.000189316
0.000173933
0.00178211
0.00176286
0.001766
0.00176355
0.00175901
0.00175521
0.00176747
0.00179092
0.00185658
0.00195675
0.00205611
0.00210569
0.00206754
0.00142633
0.000883496
0.000594902
0.000435882
0.000325013
0.000269089
0.000241736
0.00020679
0.000201092
0.000186967
0.00178021
0.00176411
0.00176439
0.00176188
0.00175774
0.00175596
0.00176833
0.00180263
0.0018749
0.00197472
0.00206768
0.00210916
0.00205047
0.00138224
0.000885421
0.000610193
0.000457402
0.000362287
0.000290316
0.000253033
0.000226654
0.000240934
0.000236677
0.00177768
0.00176319
0.00176388
0.0017613
0.0017557
0.00175773
0.00177084
0.00180989
0.00189023
0.00199442
0.00208399
0.00212343
0.00205854
0.00134167
0.000902622
0.00065653
0.000494322
0.00037578
0.000314045
0.000294535
0.000291636
0.000300287
0.000269871
0.00177587
0.00176224
0.0017633
0.00175733
0.00175502
0.00175868
0.00177595
0.00182691
0.00190956
0.00200736
0.00208889
0.00212
0.00202326
0.00135583
0.000935848
0.000675985
0.000545827
0.000441323
0.000396881
0.000360047
0.000333008
0.000332841
0.000322638
0.00177418
0.00176208
0.0017642
0.00175843
0.00175407
0.00176079
0.00177845
0.00183992
0.00192595
0.00202168
0.00210058
0.00213314
0.00203804
0.00131253
0.000953985
0.000773395
0.000607782
0.000527296
0.000441097
0.000387483
0.00038603
0.000424408
0.000394037
0.00177251
0.00175846
0.00176426
0.00175533
0.00175406
0.00176146
0.00179298
0.00186798
0.00193821
0.0020263
0.00210005
0.00212595
0.00199299
0.00138561
0.00104242
0.000799479
0.000698425
0.000580117
0.000510063
0.00050797
0.000543208
0.00058294
0.000601803
0.00177133
0.00175694
0.00176607
0.00175428
0.00175414
0.00176328
0.00180342
0.00188798
0.00194971
0.00203546
0.00211021
0.00213413
0.00200015
0.0013428
0.00103889
0.000900551
0.000739925
0.000701578
0.000690533
0.000673477
0.000698712
0.000590722
0.000500132
0.00177044
0.0017532
0.00176801
0.00175588
0.00175517
0.00176794
0.00183267
0.00191325
0.00195664
0.00203624
0.00210526
0.00212536
0.00195351
0.00143992
0.00118292
0.000996048
0.0008805
0.000923846
0.000871846
0.000779158
0.000603891
0.000463881
0.000374679
0.00176836
0.00174984
0.0017677
0.00175375
0.00175581
0.00178289
0.00185845
0.00192262
0.0019634
0.00203836
0.00211585
0.00212964
0.00195355
0.00141332
0.00119709
0.00105364
0.00111361
0.00104962
0.00086798
0.000654722
0.000464653
0.000353802
0.0003268
0.001769
0.00174536
0.0017722
0.00175401
0.00175856
0.00180609
0.00189256
0.0019356
0.00197027
0.00204328
0.00211652
0.00211026
0.00188749
0.00151728
0.00133278
0.00124405
0.00127091
0.00104487
0.000743708
0.000514581
0.000396285
0.000358605
0.000336475
0.0017664
0.00174281
0.00177354
0.00175737
0.00176879
0.00182793
0.00190273
0.0019353
0.00196862
0.00204072
0.00211713
0.00210256
0.00187073
0.00151983
0.00142508
0.00144847
0.0012372
0.000823901
0.000619113
0.00047989
0.000439468
0.000382939
0.000368178
0.00176835
0.0017396
0.00177298
0.00176764
0.00178505
0.00184042
0.00190709
0.00193187
0.00196459
0.00203668
0.00211037
0.00207511
0.00180941
0.0015557
0.0014988
0.00151599
0.00107367
0.000753282
0.000610852
0.000509217
0.000442798
0.000417658
0.000416056
0.00176516
0.00173885
0.00178019
0.00178135
0.00179755
0.00184948
0.00190574
0.00192461
0.00195917
0.00203237
0.00211015
0.00206317
0.00177818
0.00154776
0.00180577
0.00141867
0.000942313
0.000723208
0.000630774
0.000511191
0.000461979
0.00044332
0.000436939
0.00176875
0.00173588
0.00178887
0.00179829
0.00181002
0.00185529
0.00190163
0.00191682
0.00195325
0.00202807
0.00210219
0.00204102
0.00173998
0.00155041
0.00174002
0.00117164
0.000887465
0.000752315
0.000604905
0.000504353
0.0004665
0.000449866
0.000444012
0.00176539
0.00173531
0.00181894
0.00180512
0.00181522
0.001859
0.00189525
0.00190804
0.00194694
0.002024
0.00209918
0.00199868
0.0016176
0.00144186
0.00140763
0.00110996
0.000888283
0.000715159
0.000604469
0.000516547
0.000466511
0.000455079
0.000450993
0.00177041
0.00174503
0.00183885
0.00181705
0.00182265
0.00186141
0.00188868
0.00189986
0.00194078
0.00202031
0.00209418
0.00199515
0.00162821
0.00161689
0.00146196
0.00113102
0.000895603
0.000716005
0.000617169
0.000517905
0.000470481
0.000465551
0.0004689
0.00177081
0.00176229
0.00186685
0.00182115
0.00182612
0.00186189
0.0018806
0.00189195
0.00193469
0.00201608
0.00207898
0.00187106
0.00132599
0.00141707
0.00130913
0.00109696
0.000878079
0.000728322
0.000620613
0.000510798
0.000474478
0.000468784
0.000479799
0.00177424
0.00179057
0.00187666
0.00182841
0.00182856
0.00186245
0.00187425
0.0018848
0.00192895
0.00201336
0.00207545
0.00186434
0.00151633
0.00163341
0.00145938
0.00110043
0.00087197
0.000709955
0.00061162
0.000509098
0.000477749
0.000477794
0.000480574
0.00177422
0.00181788
0.001892
0.00183332
0.00183247
0.00185998
0.00186676
0.0018784
0.0019236
0.00200948
0.00205598
0.00174046
0.00137482
0.00163014
0.00149703
0.00108995
0.000843192
0.000710807
0.000628247
0.000524535
0.000495557
0.000494424
0.000480177
0.00178076
0.0018414
0.00189192
0.00183664
0.00183192
0.00185879
0.00186139
0.00187257
0.00191842
0.00200665
0.0020366
0.00168657
0.00159383
0.00176063
0.00171119
0.00108007
0.000873151
0.000766307
0.000670762
0.000555781
0.000533355
0.000525141
0.000491842
0.00179727
0.0018605
0.00189899
0.00184168
0.00183526
0.00185541
0.00185569
0.00186779
0.00191444
0.00200439
0.00203161
0.00172501
0.00170409
0.00189634
0.0018201
0.00113046
0.000916447
0.000813893
0.000737688
0.000607246
0.000583444
0.000559859
0.000512338
0.00181611
0.0018746
0.00189113
0.00184334
0.00183392
0.00185188
0.00185189
0.00186337
0.00190999
0.00200197
0.00200402
0.00162174
0.00162719
0.00196081
0.00213671
0.00123434
0.000941549
0.000863034
0.0007966
0.000655964
0.000638864
0.000604364
0.000540512
0.00183593
0.00188311
0.00189253
0.00184602
0.00183595
0.00184887
0.00184822
0.00186008
0.00190744
0.00199975
0.00198284
0.00166021
0.0017783
0.00225116
0.00220693
0.00131354
0.00101431
0.000869884
0.000827955
0.00069803
0.000685018
0.000646949
0.000577899
0.00185025
0.00188718
0.00188182
0.00184779
0.00183453
0.00184459
0.00184582
0.00185715
0.00190444
0.00199657
0.0019664
0.00170424
0.00197274
0.00240505
0.00226428
0.00150506
0.00107889
0.000893987
0.000856755
0.000739499
0.000724812
0.000672522
0.000614636
0.00185944
0.00188882
0.00187798
0.00184815
0.00183596
0.00184162
0.00184457
0.00185504
0.00190217
0.00199226
0.0019467
0.00177793
0.00223871
0.00243947
0.00215171
0.00164149
0.00118786
0.00088659
0.000867264
0.000778244
0.000745196
0.00069606
0.000650313
0.00186482
0.00188725
0.00186995
0.00184905
0.00183384
0.00183752
0.001843
0.00185342
0.00190135
0.00199461
0.00200902
0.00210964
0.00238222
0.00264306
0.00218778
0.0017322
0.00126852
0.000870383
0.000882354
0.00079125
0.000737455
0.000725047
0.00068486
0.00186608
0.00188433
0.00185984
0.00184797
0.00183442
0.00183491
0.00184296
0.00185224
0.00189967
0.00199207
0.00204344
0.0021149
0.00249594
0.0026864
0.00212765
0.00167456
0.00124295
0.000834069
0.000864029
0.000805596
0.000740197
0.000720923
0.000691453
0.0018656
0.00188045
0.00185637
0.00184821
0.00183294
0.00183117
0.00184252
0.0018514
0.00189974
0.00198772
0.00210858
0.00230628
0.00303852
0.00247963
0.00201427
0.00154512
0.00114352
0.000790036
0.000803402
0.000788175
0.000753149
0.00071128
0.000688835
0.00186429
0.0018763
0.00184548
0.00184517
0.00183127
0.0018272
0.00184216
0.00185095
0.0018994
0.00201256
0.00200239
0.00231869
0.00310294
0.00232197
0.00198023
0.00145675
0.00105156
0.000755227
0.000740649
0.000721026
0.000733234
0.000696322
0.000682407
0.0018598
0.00187014
0.00184036
0.00184395
0.00182788
0.00182618
0.00184147
0.0018504
0.00189964
0.00201056
0.00216537
0.00216118
0.00296888
0.00214141
0.00187021
0.00133457
0.000966034
0.000753432
0.000718706
0.000667413
0.000662182
0.000647382
0.000644382
0.00185842
0.00186656
0.0018306
0.00183941
0.001825
0.00182226
0.00184071
0.00185049
0.00190027
0.00198375
0.0020973
0.00199012
0.00261226
0.00194836
0.00168562
0.00124417
0.000914033
0.000755194
0.000701324
0.000640068
0.000606135
0.000594095
0.000596684
0.0018543
0.00185864
0.00182787
0.00183702
0.00182194
0.00182551
0.00183934
0.00184996
0.0019014
0.00200708
0.00207973
0.0018703
0.00228349
0.00176929
0.00151157
0.00114976
0.000873416
0.000768392
0.000700855
0.000638757
0.000577163
0.000563312
0.000561531
0.00185278
0.0018567
0.00181779
0.00183126
0.00182027
0.00182351
0.00183921
0.00185024
0.00190231
0.00198486
0.0019342
0.00181839
0.00212255
0.00135408
0.00141745
0.00108326
0.000860295
0.000792725
0.000708381
0.000643835
0.000579862
0.00055214
0.000548116
0.00185149
0.0018496
0.00181722
0.00182851
0.00182142
0.0018227
0.00183904
0.00184994
0.00190227
0.00198317
0.00197536
0.00176137
0.00102056
0.000766906
0.00105964
0.00104416
0.000868767
0.000813173
0.000722953
0.000652525
0.000571263
0.000546336
0.000532383
0.00184874
0.00184916
0.00181067
0.0018232
0.0018229
0.00182193
0.00183891
0.00184964
0.00190302
0.00192612
0.00195512
0.00174541
0.000782523
0.00056433
0.000652036
0.00088496
0.000891769
0.000814245
0.00072827
0.000655634
0.000583884
0.000548181
0.000539191
0.0018487
0.00184547
0.0018127
0.00182144
0.0018272
0.0018236
0.00183855
0.00184959
0.0019109
0.00196287
0.00213382
0.00174163
0.000545913
0.000477106
0.000449021
0.000565515
0.000669995
0.000828938
0.000746628
0.00065989
0.000578234
0.000548429
0.000529927
0.00184649
0.00184539
0.00181132
0.00181902
0.00182912
0.00182565
0.00183766
0.00184943
0.0019121
0.00202767
0.00216923
0.00169714
0.00044961
0.000364903
0.000342112
0.000432447
0.000507638
0.00066812
0.000742843
0.000653878
0.000573885
0.000543844
0.00052689
0.00184548
0.00184489
0.00181385
0.00181852
0.00183249
0.00182821
0.0018367
0.00184877
0.00193092
0.00204333
0.0020736
0.00156849
0.00044548
0.000285118
0.000282266
0.000355136
0.000419811
0.0005267
0.000595161
0.000626408
0.000567521
0.000562691
0.000534583
0.00184425
0.00184435
0.00181565
0.0018185
0.0018332
0.00183029
0.00183572
0.00184881
0.0019255
0.00204218
0.00202372
0.0011448
0.000540163
0.000267926
0.000239983
0.000301367
0.000362485
0.000445603
0.000505926
0.00048264
0.000574964
0.000559606
0.00053346
0.00184368
0.00184505
0.00181974
0.0018185
0.00183468
0.00183155
0.00183503
0.0018491
0.00192633
0.00203728
0.00202909
0.000917737
0.000403774
0.000269862
0.000221994
0.000282026
0.000332165
0.000375632
0.000391966
0.000395594
0.000558418
0.000550229
0.000529957
0.00184361
0.00184411
0.00182395
0.00181904
0.00183428
0.0018326
0.0018346
0.00184926
0.00192626
0.00202572
0.00204567
0.000680577
0.00031083
0.000273005
0.000195038
0.000241326
0.000320579
0.000393329
0.000410273
0.00038699
0.000466371
0.000485707
0.000477636
0.00184362
0.00184404
0.00182746
0.00181881
0.00183439
0.00183283
0.00183451
0.00184954
0.0019268
0.00203679
0.00182669
0.000540403
0.000270846
0.000276937
0.000195655
0.000207399
0.000234177
0.000253677
0.000242741
0.000255197
0.00035023
0.000504611
0.000489854
0.0018441
0.00184237
0.00183019
0.0018187
0.00183375
0.00183294
0.00183444
0.00184961
0.00192532
0.00203453
0.00194645
0.000681261
0.000323992
0.000245821
0.000221479
0.000208525
0.000204985
0.000202436
0.00017407
0.000166395
0.000201535
0.000272422
0.000321462
0.001844
0.00184076
0.00183127
0.00181796
0.00183352
0.00183253
0.0018343
0.00184916
0.0019254
0.00202515
0.00179672
0.000964587
0.000382026
0.000483175
0.00029033
0.0002157
0.000217229
0.000245877
0.000240799
0.000256459
0.00037914
0.000541795
0.000509893
0.00184444
0.00183876
0.00183279
0.00181751
0.00183328
0.00183235
0.00183419
0.00184893
0.00192545
0.00201848
0.00167049
0.00106276
0.000435869
0.000760003
0.000371663
0.000233932
0.000216738
0.000245275
0.000250471
0.000271223
0.000397807
0.000544456
0.000514587
0.00184455
0.00183661
0.00183283
0.00181694
0.00183318
0.00183182
0.00183395
0.00184806
0.001926
0.00200789
0.00161079
0.000731793
0.000551141
0.000999274
0.000469584
0.000262976
0.000224279
0.000245614
0.000253467
0.000271806
0.000382983
0.000540386
0.000515277
0.00184461
0.00183424
0.00183368
0.00181659
0.00183329
0.00183151
0.00183362
0.00184705
0.001923
0.00199918
0.00151107
0.000582756
0.000663301
0.00077416
0.000594771
0.000311183
0.000240879
0.000250387
0.000262801
0.000287791
0.000393405
0.000535518
0.000515275
0.00184437
0.00183267
0.00183396
0.00181631
0.00183322
0.00183093
0.00183324
0.00184647
0.0019225
0.00199184
0.00117168
0.000342163
0.000769437
0.0008152
0.000697418
0.000369453
0.000264867
0.000249987
0.000269063
0.000290692
0.000384875
0.000471761
0.000512157
0.00184443
0.00183044
0.00183413
0.00181694
0.00183335
0.00183045
0.00183266
0.00184494
0.00191935
0.00198075
0.000901914
0.000421154
0.000760909
0.000939526
0.00079051
0.000459749
0.000293804
0.000254452
0.00026953
0.000285842
0.000365423
0.00041032
0.000472195
0.00184274
0.00182881
0.00183485
0.00181642
0.00183299
0.00183
0.00183208
0.00184297
0.00192107
0.0019742
0.000819494
0.00061861
0.000812943
0.00093085
0.00082182
0.000572628
0.000332035
0.000267795
0.000270343
0.000275737
0.000344002
0.000371608
0.000389491
0.00184293
0.00182833
0.00183512
0.00181804
0.00183299
0.00182911
0.00183149
0.00184214
0.00191694
0.00196521
0.000787574
0.000879575
0.000769664
0.000866903
0.000833119
0.000753451
0.000374014
0.000281016
0.000269409
0.000270338
0.000331661
0.00034476
0.000345082
0.00184069
0.0018263
0.00183467
0.00181797
0.00183229
0.001829
0.00183065
0.00184057
0.00191372
0.00196576
0.000765749
0.000799045
0.000775663
0.000785272
0.000846522
0.000999759
0.000437338
0.000304124
0.000272787
0.0002697
0.000317541
0.00032848
0.000319486
0.00183954
0.0018261
0.00183609
0.00181892
0.0018322
0.00182804
0.00183026
0.00183896
0.00191956
0.00195675
0.00073631
0.000760899
0.000838101
0.00077978
0.000842344
0.000992372
0.000525431
0.000330552
0.000275335
0.000275916
0.000308688
0.000318492
0.000311855
0.00183849
0.00182629
0.00183457
0.00181992
0.00183111
0.00182755
0.00182934
0.00183692
0.00191806
0.00196488
0.000720586
0.000782832
0.000890993
0.000794578
0.000878596
0.000982205
0.000656398
0.000368696
0.000286685
0.000288451
0.000305345
0.000314632
0.00031018
0.00183619
0.00182353
0.00183429
0.00182024
0.0018312
0.00182752
0.00182907
0.00183559
0.00191213
0.00196455
0.000703372
0.000797844
0.000963675
0.000757378
0.000880128
0.000964566
0.00079511
0.000415336
0.000311304
0.000307487
0.000313522
0.000324553
0.000337787
0.00183401
0.00182441
0.00183444
0.00181984
0.00182947
0.00182579
0.0018282
0.00183491
0.00191938
0.00196282
0.000692045
0.00079413
0.000840659
0.000721026
0.000921411
0.000969546
0.000840864
0.000499797
0.000343084
0.000338556
0.000326884
0.000330626
0.000346955
0.00183351
0.00182191
0.00183088
0.00182065
0.00182858
0.00182602
0.00182796
0.0018345
0.00191468
0.00196128
0.000695783
0.000672368
0.00079199
0.000661997
0.00105672
0.000950659
0.000842952
0.000574029
0.00040061
0.000368647
0.000349819
0.000365144
0.000391176
0.00182495
0.00181911
0.00182555
0.00182012
0.0018271
0.00182427
0.00182709
0.00183424
0.00192507
0.00195805
0.000703188
0.000548898
0.000794823
0.000566886
0.00108483
0.000945788
0.000831312
0.000688442
0.000465729
0.000427307
0.000395335
0.000402951
0.000411609
0.00182314
0.00181824
0.00182221
0.0018192
0.00182526
0.00182336
0.00182638
0.001834
0.00191751
0.0019601
0.000705101
0.000424749
0.000951182
0.000507353
0.00107909
0.000916501
0.000820231
0.000727557
0.000559396
0.000476984
0.000426065
0.000441931
0.000480865
0.00181931
0.00181842
0.00182011
0.00181852
0.00182438
0.00182335
0.00182521
0.00183377
0.00191377
0.00195841
0.000726437
0.000203542
0.00120718
0.000525812
0.00077447
0.000917792
0.00081788
0.000705437
0.000662838
0.000554601
0.000505339
0.000534822
0.000604474
0.0018172
0.00181715
0.0018182
0.00181754
0.00182475
0.00182356
0.00182771
0.00183356
0.00192209
0.00195998
0.000747968
0.000334934
0.00161316
0.000589138
0.00095144
0.000897487
0.000788348
0.000693958
0.000639215
0.000615167
0.000606595
0.000664825
0.000836258
0.00181787
0.00181811
0.00181627
0.00181861
0.00182314
0.00182346
0.00182672
0.00183335
0.00192074
0.00196332
0.00068572
0.000233835
0.00159841
0.000661095
0.000986851
0.000868898
0.000774457
0.000688907
0.000644889
0.000641687
0.000685003
0.000819243
0.00100418
0.00181887
0.00181784
0.00181762
0.00181816
0.00182286
0.00182307
0.0018266
0.0018333
0.00191884
0.00196213
0.000634932
0.000305223
0.00141578
0.000755017
0.000960409
0.000845376
0.000749486
0.000690397
0.000645302
0.000651705
0.000705402
0.000837056
0.00102008
0.00181864
0.00181603
0.00181778
0.00181682
0.0018214
0.0018231
0.00182626
0.00183325
0.00192729
0.00197488
0.000624682
0.00104693
0.00157034
0.000900679
0.000943971
0.000831443
0.000740808
0.000680466
0.000652529
0.000670335
0.000730505
0.000849324
0.0010366
0.00182015
0.00181567
0.00181758
0.00181789
0.00182179
0.00182405
0.00182691
0.00183326
0.00192832
0.00197098
0.000654199
0.0010879
0.00164445
0.00109383
0.000909023
0.000822961
0.000725136
0.000688881
0.00066354
0.000687124
0.00075079
0.000845407
0.000990499
0.00181724
0.00181688
0.00181709
0.00181648
0.00182115
0.00182322
0.00182756
0.00183373
0.00192926
0.00196434
0.000683911
0.0010023
0.00165239
0.0011451
0.0008909
0.000824852
0.000727203
0.000697391
0.00068647
0.00073635
0.000810252
0.000902704
0.000978682
0.00181727
0.00181688
0.00181956
0.00181653
0.00182101
0.00182357
0.00182722
0.00183403
0.00193132
0.00196127
0.000707969
0.000942455
0.00171722
0.00106427
0.000890616
0.000834903
0.000761599
0.000728789
0.000727601
0.000782472
0.00086165
0.000914218
0.00096171
0.00181397
0.0018174
0.00181852
0.00181579
0.00182247
0.00182362
0.00182754
0.00183492
0.00193943
0.00196247
0.000744958
0.000982467
0.00162839
0.00112001
0.000887479
0.000791057
0.000760849
0.000757779
0.000768019
0.000841912
0.000918662
0.000989235
0.00101439
0.00181564
0.00181614
0.00182018
0.0018163
0.00182122
0.00182306
0.00182721
0.00183578
0.00192954
0.00196632
0.000773684
0.00109179
0.00164134
0.00117324
0.000971567
0.000841088
0.000808714
0.000804631
0.000823279
0.000904548
0.000990704
0.000998795
0.00098405
0.00181506
0.00181571
0.00181851
0.0018161
0.00182128
0.00182283
0.00182719
0.00183705
0.0019408
0.00196577
0.000812993
0.00130545
0.00163493
0.0012387
0.00101677
0.000884566
0.000839799
0.000858007
0.000889815
0.000960927
0.00102625
0.00105766
0.00101264
0.00181646
0.00181671
0.00181828
0.00181717
0.00182112
0.0018215
0.00182719
0.00184048
0.00193101
0.00198622
0.000850975
0.00159387
0.00166413
0.00128269
0.0010463
0.000934596
0.000890012
0.000915115
0.000936824
0.00100785
0.00104467
0.00107411
0.00104707
0.00181584
0.00181657
0.00181929
0.00181737
0.00182115
0.0018221
0.00182698
0.00184124
0.00194304
0.00198676
0.000896648
0.00197905
0.00169284
0.00127269
0.00106279
0.000981118
0.000949747
0.000950155
0.000991199
0.00102936
0.0010539
0.00108812
0.00113555
0.00181847
0.00181793
0.00181706
0.00181624
0.00182095
0.00182237
0.00182785
0.00184279
0.00193281
0.00198603
0.000967833
0.00190773
0.00182145
0.00133397
0.00115232
0.00105507
0.000993528
0.000997721
0.00102336
0.00106602
0.0010845
0.00114105
0.00118295
0.00181552
0.00181758
0.00181731
0.00181476
0.00181912
0.0018218
0.00182804
0.00184429
0.00193755
0.00199845
0.00102474
0.00190905
0.00175032
0.00138465
0.00120666
0.00112259
0.00108281
0.00109008
0.00112735
0.00114076
0.00116324
0.00119894
0.00117937
0.00181505
0.00181534
0.00181649
0.00181518
0.00182023
0.00182159
0.0018283
0.00184582
0.00193241
0.0020002
0.00109123
0.00208632
0.00230683
0.00144115
0.00132467
0.0011995
0.00111801
0.00114131
0.00117253
0.00123356
0.00122955
0.00126038
0.00118104
0.00181707
0.00181767
0.00181522
0.00181608
0.00182137
0.00182145
0.00182928
0.00184549
0.00193454
0.00200461
0.00116236
0.00233483
0.00249088
0.00163885
0.00142221
0.00128798
0.00117695
0.00128147
0.00130996
0.00125761
0.001318
0.00126684
0.00122356
0.00181681
0.00181404
0.00181427
0.00181431
0.0018211
0.00182175
0.0018288
0.00184457
0.00193954
0.00199255
0.00143581
0.00291337
0.00294053
0.00190004
0.00155976
0.00138622
0.00131001
0.00133775
0.00131183
0.00135841
0.0013512
0.00129572
0.00123074
0.00182191
0.00181288
0.0018147
0.00181715
0.00182052
0.00182311
0.00182815
0.00184987
0.00194154
0.00199625
0.00171524
0.00387966
0.00384227
0.00194756
0.00167318
0.00148321
0.00139189
0.00139202
0.00133016
0.00142815
0.00139065
0.00136331
0.00122822
0.00181902
0.00181074
0.00181592
0.00181673
0.00182018
0.00182424
0.00182721
0.00185068
0.00194277
0.00198995
0.0020741
0.00484345
0.0042243
0.00240042
0.00183712
0.00155928
0.0015106
0.00142426
0.00143004
0.00147218
0.00144671
0.00140133
0.00123174
0.00182246
0.00181071
0.00181822
0.00181777
0.0018197
0.00182348
0.00182756
0.00185289
0.00194901
0.00199221
0.00225363
0.00596256
0.00413372
0.00266268
0.00206439
0.00180096
0.00160677
0.0014391
0.00153848
0.00157724
0.00151213
0.00144748
0.00125243
0.00182193
0.00181279
0.00181765
0.00181904
0.00181956
0.00182415
0.00182842
0.00185055
0.00194309
0.00200717
0.00224376
0.00704386
0.00439507
0.00316206
0.00216203
0.00188397
0.00170498
0.00159264
0.00165886
0.00166504
0.00159722
0.0014823
0.00125511
0.00181913
0.00181603
0.00181503
0.00181773
0.00181882
0.00182306
0.00182851
0.00184865
0.00193467
0.00203917
0.00291566
0.00912154
0.00518193
0.00331758
0.00247334
0.00210953
0.00201416
0.0017257
0.00176907
0.00178466
0.00168622
0.00148328
0.0011755
0.00181789
0.00181812
0.0018155
0.0018158
0.00181877
0.00182066
0.00182878
0.00184576
0.00192249
0.00206842
0.00331265
0.0111514
0.00707609
0.00377586
0.0029102
0.00251203
0.00221031
0.00200562
0.00203465
0.00186201
0.00175761
0.00151114
0.00109413
0.00181489
0.00182113
0.00181803
0.00181526
0.00181907
0.00181739
0.00182703
0.00184267
0.00191182
0.00209922
0.00423486
0.0133085
0.00849548
0.00438149
0.00346863
0.0028612
0.00263652
0.00239996
0.00219798
0.0019727
0.00183908
0.00149207
0.000938673
0.00181223
0.00181978
0.00181575
0.00181294
0.00181774
0.00181734
0.00182644
0.00184094
0.00190344
0.00215251
0.00563463
0.0166649
0.00837261
0.00465718
0.00374135
0.00337374
0.00303208
0.002657
0.00240465
0.0020624
0.00188821
0.00133528
0.000811279
0.00181689
0.00181516
0.00181855
0.0018153
0.00181475
0.0018159
0.00182577
0.00183968
0.00189628
0.00223449
0.0121653
0.0204305
0.00828068
0.0052944
0.00463257
0.00363982
0.00309325
0.00277888
0.002483
0.00226826
0.00178383
0.00103722
0.000791317
0.00181949
0.00181218
0.00181652
0.00182303
0.00181663
0.00181494
0.00182572
0.00183936
0.00188438
0.00250623
0.0129069
0.0220662
0.00839331
0.00601605
0.00497876
0.00364883
0.00326832
0.00295408
0.00268293
0.00215533
0.00151649
0.000896778
0.000843556
0.00181611
0.00181067
0.00181365
0.00182381
0.00182002
0.00181918
0.00182533
0.00183937
0.00193021
0.00300236
0.0128948
0.0187269
0.00918781
0.00696721
0.00540854
0.00381727
0.00331019
0.00300571
0.00262277
0.00203233
0.00131415
0.000896171
0.000896193
0.00181514
0.00180759
0.00181253
0.00182514
0.00182384
0.00182124
0.00182553
0.00183982
0.00191642
0.00398055
0.0124939
0.0177633
0.0109256
0.0081217
0.00634788
0.00381888
0.00343832
0.00306077
0.00262134
0.0018518
0.00120493
0.000962653
0.000979434
0.00181457
0.00180081
0.00181012
0.00182012
0.00182456
0.00182263
0.00182509
0.00184204
0.00206953
0.00468062
0.0166075
0.0180825
0.0124352
0.00967647
0.00640438
0.0040398
0.00354984
0.00323111
0.00260191
0.00168664
0.00127706
0.00100099
0.00105092
0.00181499
0.00180233
0.00180887
0.00181857
0.00182832
0.00182473
0.00182511
0.00184219
0.00207527
0.0058604
0.0220963
0.0171013
0.0129621
0.00985474
0.00683915
0.00396251
0.00372588
0.00338226
0.00245936
0.00140001
0.00118404
0.00104569
0.00116422
0.00181951
0.00181117
0.00181084
0.00181716
0.00182921
0.001825
0.00182485
0.00185078
0.00218468
0.00625184
0.0193539
0.0175553
0.0142668
0.0108325
0.00697655
0.00413731
0.00383441
0.0032021
0.00168842
0.00153653
0.00114195
0.00117618
0.00120986
0.00181363
0.0018153
0.00181309
0.00181662
0.00182968
0.00182185
0.00182468
0.00184965
0.00234632
0.00691505
0.0191817
0.016993
0.0148558
0.011122
0.00666275
0.00450447
0.0037282
0.00248491
0.0018667
0.00146689
0.00120113
0.00127055
0.00132468
0.00181134
0.00181834
0.00181538
0.00181484
0.00182491
0.00181841
0.00182519
0.00186633
0.00250645
0.00677149
0.0167154
0.0167967
0.0148759
0.0111785
0.00648554
0.0041395
0.00352532
0.00274618
0.0018514
0.00122519
0.00128757
0.00144111
0.00147414
0.00180936
0.00181865
0.00181839
0.00181437
0.00182024
0.00181673
0.00182446
0.00186466
0.00269345
0.00852548
0.017984
0.0162295
0.0147229
0.0121996
0.00714657
0.00515544
0.00387533
0.00283908
0.00153343
0.00132603
0.00156564
0.00148784
0.00164997
0.0018071
0.00181564
0.00182084
0.00181179
0.00181554
0.00181452
0.001826
0.00187485
0.00289388
0.00956374
0.0179477
0.0169634
0.0155316
0.0129021
0.00841314
0.00602395
0.00359696
0.00275699
0.00153343
0.00167513
0.00171743
0.00164839
0.00189793
0.00180471
0.00181173
0.00181934
0.00181145
0.00181511
0.00181339
0.00182414
0.00187339
0.00257252
0.00937955
0.0169283
0.0171721
0.0161514
0.0130327
0.00799567
0.00628659
0.00359563
0.002811
0.00174691
0.00191186
0.00191952
0.00192572
0.0022142
0.00180196
0.00180687
0.00181356
0.00180803
0.00181112
0.0018117
0.00182681
0.00188245
0.00314646
0.00996772
0.0168369
0.0166692
0.0163912
0.0129435
0.00880515
0.00685298
0.00420145
0.00247731
0.00220885
0.00222483
0.00213091
0.00231264
0.00241778
0.001799
0.00180307
0.00180848
0.001808
0.00181209
0.00181027
0.00182367
0.00190003
0.00352693
0.0072747
0.0153994
0.0169884
0.0163943
0.0133798
0.00961542
0.00778149
0.00406781
0.00244908
0.00270483
0.00267722
0.0024196
0.00253348
0.00248088
0.00179598
0.00179916
0.00180203
0.00180354
0.00180748
0.00180873
0.00182725
0.00190531
0.00348209
0.00970743
0.0139951
0.0171972
0.0150003
0.0123123
0.0105564
0.0074997
0.00502686
0.00277616
0.00280049
0.00268403
0.00249591
0.00248883
0.00230339
0.00179309
0.00179612
0.00179812