/*--------------------------------*- C++ -*----------------------------------*\
  =========                 |
  \\      /  F ield         | OpenFOAM: The Open Source CFD Toolbox
   \\    /   O peration     | Website:  https://openfoam.org
    \\  /    A nd           | Version:  7
     \\/     M anipulation  |
\*---------------------------------------------------------------------------*/
FoamFile
{
    version     2.0;
    format      ascii;
    class       volScalarField;
    location    "50";
    object      omega;
}
// * * * * * * * * * * * * * * * * * * * * * * * * * * * * * * * * * * * * * //

dimensions      [0 0 -1 0 0 0 0];

internalField   nonuniform List<scalar> 
12842
(
3.13244
2.82154
2.64857
2.51849
2.43206
2.35897
2.31522
2.27932
2.26324
2.2543
2.23749
2.23502
2.2443
2.25637
2.28639
2.33024
2.40973
2.49959
2.65968
2.80961
3.0406
3.21903
3.46717
3.11305
2.79066
2.5968
2.48772
2.41182
2.34932
2.30887
2.27326
2.25962
2.24761
2.23075
2.23413
2.2425
2.25595
2.28799
2.33349
2.40363
2.5025
2.6641
2.80751
3.04917
3.21785
3.47187
3.07844
2.76649
2.57561
2.46174
2.38887
2.33103
2.29336
2.26073
2.2518
2.24324
2.23525
2.23731
2.24832
2.26161
2.28892
2.34712
2.43687
2.5612
2.73064
2.88733
3.12664
3.30859
3.58527
3.04698
2.71459
2.53607
2.44003
2.36932
2.32202
2.28356
2.254
2.24427
2.23045
2.23177
2.2448
2.26094
2.28494
2.32747
2.37688
2.44975
2.57548
2.74102
2.93685
3.1577
3.31934
3.71036
3.00787
2.68132
2.49492
2.40309
2.34136
2.301
2.2694
2.2454
2.24009
2.23089
2.23168
2.24522
2.26443
2.28688
2.32953
2.40242
2.49368
2.66707
2.83039
3.07087
3.36435
3.46941
3.68707
2.9694
2.63724
2.47205
2.38748
2.32527
2.29212
2.26055
2.24076
2.23168
2.23271
2.24026
2.26361
2.29477
2.32428
2.37743
2.45966
2.55634
2.70278
2.87962
3.17577
3.4618
3.67867
3.91267
2.93117
2.59752
2.42901
2.3557
2.30337
2.27457
2.2489
2.23537
2.23003
2.23441
2.2453
2.26941
2.30512
2.34257
2.40663
2.4819
2.61471
2.82685
2.98491
3.31266
3.72022
4.22474
4.51319
2.89111
2.5668
2.41118
2.34165
2.29038
2.26725
2.24234
2.23047
2.22134
2.23704
2.25518
2.29591
2.33787
2.38224
2.46371
2.5717
2.74397
2.89416
3.13916
3.45384
3.83892
4.29693
5.0746
2.85323
2.53157
2.37788
2.31571
2.27321
2.25414
2.23529
2.22825
2.22432
2.24357
2.27509
2.32502
2.36997
2.41992
2.51073
2.61433
2.79915
3.07837
3.24823
3.74038
4.23805
4.61887
5.4508
2.80691
2.50095
2.36344
2.3044
2.26412
2.249
2.23186
2.22683
2.22457
2.25368
2.30189
2.3599
2.41828
2.48956
2.59949
2.71621
2.95999
3.19069
3.54732
4.10891
4.46475
5.02791
6.08647
2.76599
2.47092
2.33643
2.28458
2.25102
2.23922
2.22649
2.22544
2.22584
2.26104
2.32339
2.37884
2.44334
2.54326
2.69784
2.85944
3.14534
3.47557
3.74098
4.46772
5.0608
5.7243
6.91969
2.7182
2.4425
2.32465
2.27504
2.24433
2.2346
2.22397
2.22442
2.23373
2.27338
2.35184
2.40859
2.49015
2.61346
2.79277
2.99266
3.33668
3.70481
4.17831
5.10907
5.64969
6.3577
7.38474
2.67965
2.4162
2.30277
2.2592
2.23314
2.22577
2.21928
2.22316
2.23597
2.28434
2.3761
2.4286
2.52349
2.68907
2.9332
3.22748
3.66959
4.10731
4.599
5.44388
6.08553
7.18945
8.44662
2.64025
2.39308
2.29325
2.25187
2.22815
2.22148
2.21686
2.22221
2.24402
2.30303
2.40655
2.4639
2.58674
2.77813
3.05505
3.3936
3.88357
4.44218
4.96096
6.03157
6.96689
8.27394
9.68045
2.6116
2.36933
2.27519
2.23942
2.21913
2.2133
2.21175
2.22031
2.24669
2.3201
2.43529
2.49468
2.63663
2.88017
3.22429
3.66511
4.26403
4.83165
5.70183
6.90632
7.75617
8.84796
10.2208
2.58157
2.35055
2.26704
2.23385
2.21491
2.2093
2.2089
2.21912
2.2575
2.34826
2.47408
2.54723
2.73491
3.02117
3.4193
3.907
4.61838
5.47827
6.32892
7.36796
8.28173
9.94629
11.8865
2.55954
2.33174
2.25186
2.22377
2.20672
2.20144
2.20244
2.21728
2.2628
2.37616
2.51414
2.59387
2.79878
3.13984
3.63133
4.30242
5.05124
5.81523
6.7328
8.15651
9.90162
11.8482
13.0619
2.53613
2.3156
2.24379
2.21912
2.20261
2.19753
2.19921
2.22001
2.28246
2.4186
2.56931
2.6709
2.9415
3.36055
3.92319
4.55444
5.56212
6.47728
7.99323
9.6598
11.1509
12.8738
14.5852
2.51886
2.30106
2.23174
2.21028
2.1943
2.18968
2.19461
2.21919
2.29692
2.46248
2.62556
2.73845
3.02213
3.47902
4.14097
5.14028
6.12518
7.54177
8.93454
10.3275
12.0059
14.639
16.2781
2.50059
2.28812
2.22223
2.20572
2.1901
2.18655
2.19085
2.22788
2.33684
2.52184
2.69865
2.83813
3.20142
3.7798
4.58963
5.4983
6.94445
8.22531
9.65066
11.8047
14.6589
17.6382
20.6523
2.48645
2.27695
2.21342
2.19746
2.18153
2.17951
2.1902
2.2335
2.36525
2.58047
2.76965
2.92561
3.31189
3.93273
4.80626
6.0757
7.38656
9.11795
11.6053
14.2582
17.1593
21.7803
27.4747
2.47122
2.26546
2.20214
2.19074
2.17821
2.18055
2.19509
2.26306
2.42432
2.65595
2.85633
3.05064
3.52393
4.27518
5.33068
6.69992
8.1245
10.9528
13.5096
16.5791
21.9055
29.9839
40.4241
2.45961
2.25734
2.19481
2.18487
2.17077
2.17729
2.20102
2.29155
2.46355
2.71993
2.93346
3.1397
3.64099
4.45194
5.65446
7.11761
9.63838
12.5418
15.5401
21.5071
31.0444
44.5096
56.4334
2.44798
2.24975
2.18523
2.17727
2.17085
2.18485
2.22471
2.34586
2.54022
2.81863
3.04244
3.30343
3.92864
4.90816
6.25388
8.15228
10.8611
14.1346
20.9643
32.8286
46.5208
61.4027
73.6525
2.44012
2.24298
2.17931
2.17318
2.17563
2.20429
2.26496
2.40167
2.60444
2.89404
3.11667
3.39354
4.06305
5.13239
6.74528
8.87885
12.462
21.2043
34.5479
49.0917
62.6916
77.3946
87.9193
2.42871
2.23794
2.1734
2.17295
2.19371
2.2408
2.31553
2.46274
2.67036
2.96741
3.20501
3.55018
4.35648
5.68163
7.17555
10.1685
19.9269
34.7623
49.4555
63.595
76.0013
87.8942
95.1624
2.42172
2.23152
2.16742
2.17865
2.22918
2.28648
2.37266
2.52908
2.73642
3.03557
3.2703
3.63644
4.51754
5.93649
8.0981
15.8741
33.5302
49.8415
62.5449
73.6572
82.9636
91.8775
97.7842
2.40805
2.22652
2.16585
2.19371
2.27011
2.3393
2.43521
2.59586
2.80175
3.10206
3.3527
3.77563
4.80875
6.96618
11.082
29.4681
47.7034
60.6849
69.7839
77.5852
85.6533
92.8166
98.1116
2.39882
2.22092
2.16557
2.2236
2.32121
2.39473
2.49992
2.66285
2.86426
3.16087
3.40997
3.91067
5.32395
8.32862
20.6212
43.2044
59.0752
66.309
72.4649
78.4645
86.1015
92.6075
97.0981
2.38559
2.21315
2.17667
2.25724
2.3729
2.45455
2.56489
2.72727
2.92403
3.21786
3.47812
4.0264
5.8738
12.5034
34.8833
54.8521
61.7503
68.3019
72.8248
78.7815
84.8277
89.0189
91.7566
2.37294
2.2135
2.19642
2.3031
2.42974
2.5133
2.63032
2.78875
2.97916
3.26692
3.54353
4.3835
8.03939
19.9958
47.3813
61.4518
63.1826
68.3601
72.9067
77.0233
80.2655
82.356
83.7352
2.36275
2.21089
2.23163
2.34845
2.48541
2.57312
2.6917
2.84605
3.03062
3.31364
3.60386
4.62299
9.638
29.6005
56.0269
64.0792
64.0309
67.3838
69.8249
71.5726
74.0356
74.6794
74.829
2.35212
2.21758
2.26859
2.39946
2.5423
2.63229
2.75144
2.89865
3.07663
3.35324
3.6887
5.26858
13.5589
39.8915
62.0201
64.0505
63.7887
64.2057
64.2555
64.6426
66.1127
66.1794
67.0525
2.34301
2.2341
2.31918
2.45053
2.59774
2.68717
2.80589
2.94649
3.11878
3.39265
3.77549
5.81096
16.6397
50.0139
65.3219
64.3313
60.1888
58.0813
58.0987
58.3492
58.565
58.7737
59.9732
2.3354
2.25986
2.36527
2.50137
2.64946
2.74203
2.85619
2.98885
3.15547
3.42409
3.86842
6.83911
23.5672
57.5032
67.5624
61.9256
57.0133
53.6862
51.9967
52.3117
52.4256
53.0415
54.2884
2.33595
2.29525
2.42155
2.55227
2.70126
2.79
2.90113
3.02661
3.18847
3.45753
4.01386
8.04248
28.5757
61.7086
68.2176
58.6644
54.6147
48.5193
47.5995
47.835
47.2394
48.2326
49.858
2.3426
2.33728
2.47178
2.60134
2.74588
2.83698
2.94113
3.05907
3.21676
3.48675
4.17197
9.45873
36.0581
64.999
68.1576
56.2406
51.253
44.6776
43.9764
44.7981
43.6911
44.3805
45.9619
2.35986
2.38617
2.52723
2.64859
2.79089
2.87683
2.97634
3.08749
3.24163
3.51637
4.36993
10.9257
38.8148
65.6996
68.1432
50.9529
47.8299
41.2054
40.7659
42.1323
40.9288
41.3623
42.7488
2.38611
2.43601
2.57754
2.69364
2.82823
2.91474
3.00599
3.1116
3.26299
3.54534
4.55613
12.1573
42.296
64.7208
65.3016
47.7963
43.7561
38.3455
38.0955
39.6801
39.0664
39.1523
40.0185
2.42052
2.4896
2.62857
2.73584
2.8665
2.94801
3.03298
3.13253
3.28145
3.571
4.76403
12.836
41.9546
61.0442
58.6054
45.4731
40.9483
36.7005
35.7218
37.0219
37.0924
37.1266
37.7351
2.45981
2.54148
2.67678
2.77649
2.89734
2.97727
3.05504
3.15029
3.29751
3.59915
4.9735
14.2852
40.065
53.0746
51.4981
42.5331
38.2866
35.2531
33.7568
34.5927
35.1842
35.3772
36.0116
2.5033
2.59373
2.72263
2.81271
2.92924
3.00505
3.07481
3.16607
3.31147
3.61956
5.15168
16.1716
38.0382
42.92
43.3254
38.0557
35.4228
33.7622
32.6642
32.9337
33.825
34.1359
34.8279
2.54755
2.64215
2.76613
2.84877
2.95565
3.03082
3.09225
3.17942
3.32455
3.66887
5.75287
16.4784
36.8658
35.9741
35.7
32.969
31.4832
30.9182
31.0217
32.1544
33.1286
33.4449
34.2169
2.59341
2.69075
2.80605
2.88005
2.98279
3.05175
3.10804
3.1918
3.33601
3.70712
5.89378
16.122
31.4839
28.0032
28.4484
28.4773
27.9053
27.6785
28.3113
30.7105
32.5681
33.0131
33.8863
2.63574
2.73317
2.8465
2.91182
3.00754
3.06926
3.12224
3.20229
3.34889
3.77147
6.05089
15.22
24.0812
22.0417
23.6877
24.4359
24.2665
24.4329
25.4319
28.0131
30.7108
31.7461
32.7947
2.67677
2.77671
2.87778
2.93768
3.02685
3.08225
3.13479
3.21239
3.35912
3.82253
6.14255
13.7724
18.442
17.0367
20.3334
21.267
21.551
21.9916
22.8747
25.0578
28.2076
29.326
30.6887
2.71243
2.81041
2.90883
2.96416
3.04018
3.09347
3.14429
3.22085
3.37218
3.90341
6.59278
12.3407
15.7576
13.7351
16.9487
18.6298
19.2118
19.639
20.5652
22.5123
25.2927
26.8554
28.098
2.74515
2.84558
2.92904
2.98413
3.04797
3.10067
3.15159
3.22931
3.38346
3.92669
6.4808
10.8792
11.1422
11.0524
14.0509
16.2526
17.0178
17.6464
18.545
20.4011
23.2952
24.5843
26.2708
2.77361
2.87064
2.95087
3.00487
3.05384
3.10835
3.15799
3.23626
3.38936
4.01453
6.04593
9.76099
8.55857
9.1461
11.58
13.9231
15.0413
15.974
17.0075
18.776
21.2168
22.7441
24.037
2.80211
2.89765
2.96608
3.02164
3.05821
3.11331
3.16319
3.24324
3.40864
3.95383
5.54685
8.81911
7.48839
8.16997
9.77452
11.8071
13.1578
14.3557
15.564
17.6168
20.2142
21.4119
23.0331
2.82651
2.91798
2.9831
3.03642
3.06477
3.11724
3.16856
3.24849
3.40925
3.85322
5.17882
8.19601
6.62854
7.2464
8.49465
10.3133
11.7459
13.1253
14.6069
16.6905
19.2446
20.6276
22.0339
2.85132
2.9374
2.99676
3.05026
3.07133
3.12088
3.17335
3.25269
3.40284
3.76648
4.89279
7.57594
8.21269
6.57208
7.691
9.29354
10.8351
12.2786
13.6674
15.734
18.7813
19.4798
20.9214
2.87262
2.9543
3.00926
3.06128
3.08072
3.12542
3.17808
3.25573
3.41018
3.7004
4.66392
7.28002
8.49991
6.33286
7.18086
8.688
10.3601
11.8947
13.3744
15.475
17.6392
18.7036
20.1502
2.89407
2.97018
3.0184
3.07349
3.09028
3.13132
3.18268
3.25821
3.40918
3.65425
4.45118
6.56627
7.4844
6.24351
6.82014
8.35189
10.1003
11.7564
13.1918
15.2396
16.7905
18.4058
19.4758
2.91362
2.98561
3.02734
3.0837
3.10129
3.13772
3.18685
3.25962
3.40788
3.61954
4.25542
6.3229
6.8318
6.027
6.65495
8.16099
9.99069
11.7503
13.0081
14.7593
16.4347
18.0463
19.3586
2.93282
3.00106
3.03704
3.09554
3.1123
3.14564
3.1914
3.2614
3.40499
3.59602
4.09867
6.26302
6.49387
6.05688
6.49919
8.12777
9.98055
11.7405
12.9515
14.4112
16.3054
17.5499
19.1395
2.95054
3.01624
3.04761
3.10595
3.12252
3.15301
3.19572
3.26272
3.40298
3.58188
3.98627
6.1874
5.83665
6.00006
6.44895
8.03922
9.91827
11.6923
12.7896
14.0923
16.1532
17.3735
18.7633
2.96665
3.03094
3.05919
3.11679
3.13213
3.16092
3.20023
3.26418
3.40055
3.57057
3.89576
6.16108
5.9935
6.01566
6.38948
7.96231
9.85465
11.6849
12.7618
13.876
16.0035
17.1863
18.4209
2.98269
3.046
3.07095
3.12741
3.14116
3.16863
3.20514
3.26594
3.39671
3.56374
3.88259
6.19954
6.13918
5.88982
6.33021
7.92396
9.79356
11.6895
12.7386
13.737
15.9371
17.0469
18.173
2.99789
3.06072
3.08388
3.13798
3.15018
3.17671
3.21036
3.26815
3.39537
3.55559
3.87418
7.23588
6.31639
5.80227
6.28334
7.84782
9.73328
11.6854
12.6944
13.6559
15.9428
17.0945
18.0993
3.01268
3.07563
3.0958
3.14853
3.15827
3.18453
3.21588
3.27071
3.39715
3.54891
3.83138
7.89779
6.05321
5.75611
6.25893
7.81553
9.6376
11.61
12.6728
13.6102
15.84
17.2511
18.06
3.02803
3.08993
3.10833
3.1588
3.1668
3.1924
3.22154
3.27353
3.39669
3.53844
3.78076
8.45221
6.01463
5.70412
6.23243
7.74045
9.60455
11.4113
12.6777
13.5848
15.8116
17.3625
18.1424
3.04167
3.10343
3.11992
3.16833
3.17463
3.20022
3.22735
3.27652
3.3972
3.5301
3.74597
8.08343
5.83463
5.65274
6.26995
7.81359
9.56835
11.2403
12.6624
13.5761
15.805
17.4156
18.1207
3.05737
3.1175
3.13125
3.17842
3.18269
3.20756
3.23326
3.27961
3.39566
3.51437
3.71164
7.16639
5.56315
5.64083
6.32532
7.78626
9.55924
11.1736
12.65
13.5708
15.7938
17.3871
18.1526
3.07111
3.12929
3.14243
3.18696
3.1908
3.21551
3.23887
3.28264
3.39644
3.50221
3.71824
6.40237
5.64029
5.62795
6.41133
7.89521
9.52711
11.1025
12.6259
13.6198
15.8486
17.3905
18.1651
3.08641
3.14191
3.15324
3.19586
3.19878
3.22227
3.24497
3.28574
3.39755
3.50351
3.71601
5.92208
5.62494
5.65229
6.58476
7.9296
9.55288
11.1017
12.6139
13.7493
15.9019
17.335
18.1164
3.10018
3.15366
3.16313
3.20465
3.20635
3.22967
3.25015
3.28865
3.39838
3.50264
3.70942
5.84705
5.4625
5.67563
6.62569
8.03679
9.60181
11.0633
12.5741
13.9901
16.0468
17.3141
18.1332
3.1154
3.16373
3.17414
3.21185
3.2149
3.23671
3.25616
3.29159
3.3994
3.49754
3.71153
5.67538
5.54827
5.69183
6.82666
8.20304
9.83141
11.1546
12.5582
14.3119
16.0736
17.275
18.1381
3.12845
3.17586
3.18335
3.22082
3.22195
3.24287
3.26091
3.29445
3.40005
3.49665
3.69144
5.6481
5.68233
5.71578
6.96179
8.40332
9.93785
11.2027
12.7008
14.6372
16.2208
17.3794
18.517
3.14334
3.18568
3.19361
3.22821
3.22987
3.25015
3.26695
3.29723
3.39702
3.49763
3.70434
5.77182
5.76483
5.7933
7.24002
8.45716
10.0321
11.593
12.8667
15.134
16.4783
17.4193
18.5977
3.15647
3.19684
3.20336
3.23601
3.23838
3.25608
3.27111
3.30009
3.4015
3.49181
3.69182
5.76246
5.81118
5.91158
7.41932
8.69106
10.1465
11.7944
13.3221
15.3819
16.6391
17.7682
19.0868
3.17193
3.20511
3.21431
3.24228
3.2456
3.2634
3.27718
3.3029
3.39703
3.49634
3.71587
5.63871
5.79218
6.05457
7.67848
8.89856
10.4455
12.1393
13.6927
15.9797
17.2494
18.289
19.4236
3.18086
3.20928
3.22203
3.2472
3.25253
3.26655
3.28176
3.30569
3.40116
3.49334
3.72104
5.43616
5.63685
6.12987
7.90865
9.39409
10.7649
12.4326
14.308
16.3498
17.4114
18.7159
20.0036
3.18561
3.21131
3.2266
3.24729
3.25327
3.26823
3.28708
3.30851
3.39793
3.50067
3.72674
5.56596
5.73739
6.27995
8.4043
9.58292
11.0405
13.2224
14.685
16.7236
17.9075
19.5489
21.4636
3.18937
3.21153
3.22936
3.25011
3.25435
3.27034
3.28686
3.31119
3.39824
3.50102
3.72708
5.44591
5.7795
6.5367
9.09245
10.0928
11.7626
13.8524
15.7544
17.2413
18.5789
20.6784
23.6846
3.18794
3.211
3.23232
3.24881
3.25563
3.27163
3.28829
3.31373
3.40048
3.50305
3.73824
5.85871
5.92599
6.98951
9.74576
10.761
12.2657
14.4311
16.5822
18.0523
19.922
22.8596
27.625
3.18793
3.21256
3.23072
3.2495
3.25607
3.27188
3.28903
3.31604
3.40339
3.5035
3.73293
5.64755
5.9952
7.47664
10.2198
11.4257
13.1915
15.206
17.6391
19.2275
21.518
25.9266
33.3128
3.18803
3.21279
3.2304
3.25167
3.25847
3.27163
3.2898
3.31809
3.40691
3.50053
3.74294
5.4023
6.08453
7.96783
10.6992
12.0538
14
16.4072
18.807
20.8679
24.151
30.1902
39.5703
3.18799
3.21371
3.2303
3.2499
3.2576
3.27165
3.28874
3.31979
3.40946
3.50973
3.73132
5.17955
6.18376
8.35224
11.5448
12.8862
15.3551
17.6532
20.4753
23.0932
27.3783
35.2245
46.5906
3.18926
3.21091
3.23096
3.24977
3.25861
3.27189
3.2886
3.321
3.4125
3.51096
3.73461
5.09883
6.39056
9.088
12.6541
13.8382
16.4596
19.0027
21.9543
25.0448
30.567
39.8018
53.4847
3.18926
3.21113
3.22836
3.24952
3.25905
3.27169
3.28846
3.32205
3.41264
3.51508
3.74097
5.06291
6.38913
10.3677
13.9393
15.0038
17.5843
20.3743
23.6992
27.4514
34.0626
46.0125
60.487
3.1942
3.21242
3.23056
3.25152
3.25673
3.27167
3.28868
3.32242
3.42197
3.51593
3.75288
5.1057
7.26585
11.1763
15.0983
16.874
19.0546
21.5816
25.2075
29.9154
38.0113
49.7397
64.8147
3.19124
3.21082
3.22827
3.24934
3.25652
3.27125
3.28844
3.32363
3.42402
3.51945
3.75893
5.18476
8.11165
12.2131
16.1015
18.3694
20.3172
22.7488
26.5867
31.8383
40.5401
55.887
73.6789
3.19422
3.21138
3.22766
3.24981
3.25712
3.27111
3.28858
3.32352
3.42316
3.52013
3.77872
5.28962
8.96124
13.0236
17.1943
19.5302
21.7622
24.1426
28.2973
35.1591
46.1838
60.9365
78.4959
3.19135
3.2104
3.22741
3.2468
3.2546
3.2711
3.28839
3.32329
3.43251
3.51266
3.81995
5.11786
9.58925
14.2474
18.8881
20.803
22.8656
25.9665
30.9331
39.3265
52.1441
66.9205
83.8689
3.1914
3.21068
3.22612
3.24628
3.25412
3.27141
3.28886
3.32402
3.43393
3.51808
3.8398
5.73202
12.0027
15.9154
20.5043
22.4385
24.5007
27.4877
33.5102
43.8343
58.4661
72.766
84.97
3.18614
3.20645
3.22598
3.24744
3.25509
3.26898
3.28715
3.32442
3.4323
3.51808
3.86356
7.54279
15.2305
17.9117
21.7726
23.9868
25.7464
29.7597
36.5373
48.0108
63.4529
77.3452
85.6232
3.18488
3.20571
3.22483
3.24755
3.25506
3.27064
3.28682
3.32408
3.43983
3.5313
3.90644
9.33912
19.5992
20.4373
23.4175
25.1563
27.4429
31.1558
39.1608
52.6557
67.5673
80.3213
86.9949
3.18471
3.20608
3.22439
3.24579
3.25252
3.26844
3.28695
3.32336
3.44008
3.53597
3.90725
11.8623
21.5483
22.5748
24.619
26.8321
29.2122
33.8393
42.8769
55.1474
72.2912
80.4137
87.2137
3.17858
3.20131
3.22616
3.24426
3.25178
3.26826
3.285
3.32547
3.442
3.54726
3.99772
15.6012
27.0024
24.5313
26.5402
28.0963
30.4668
35.0384
45.1558
62.5959
73.2392
81.2103
83.6129
3.17706
3.20119
3.22615
3.24286
3.24988
3.26756
3.28476
3.32589
3.43946
3.54719
4.08696
19.9084
32.0948
26.4679
28.3108
30.0643
32.6966
39.0382
51.4342
65.0795
74.8064
79.3666
78.2477
3.17394
3.20255
3.22467
3.24067
3.25015
3.26597
3.28496
3.32629
3.44121
3.57189
4.21903
23.4153
33.6842
28.5924
30.1585
31.226
34.2584
42.4936
58.366
67.6463
73.8732
74.239
70.4487
3.17295
3.20409
3.22313
3.23727
3.24631
3.26473
3.28507
3.32593
3.43944
3.57709
4.55011
26.7969
34.4089
31.316
31.3823
32.8104
37.4317
49.0391
60.8015
68.0426
70.9854
68.1854
62.2423
3.17038
3.20322
3.21999
3.23619
3.24599
3.26446
3.28337
3.32606
3.44031
3.56482
4.71931
29.8469
36.6368
33.6637
32.7202
34.3233
40.5994
53.0682
61.55
65.4642
67.0759
60.8712
53.7732
3.16862
3.20012
3.2167
3.23413
3.24757
3.26078
3.28014
3.32319
3.43675
3.59685
5.39826
34.1692
39.6672
36.1347
34.214
35.6423
43.1691
55.8012
61.5949
63.4816
62.1864
54.6435
46.1737
3.1702
3.19695
3.21403
3.23322
3.24831
3.26032
3.27923
3.3228
3.43619
3.6261
6.4107
37.8155
40.446
36.9171
35.0121
37.6497
45.904
57.138
60.3784
60.0883
55.4394
47.0478
38.1729
3.16751
3.19233
3.21108
3.23449
3.24614
3.2618
3.27644
3.32041
3.42793
3.65467
6.93157
41.9355
43.699
38.1724
37.1901
41.375
48.0391
56.5021
58.2798
56.722
50.7993
42.3661
33.9319
3.16416
3.18395
3.20679
3.23321
3.2433
3.26142
3.27609
3.31712
3.41876
3.68061
8.23454
45.7643
46.3289
41.4058
40.8115
44.058
48.4758
53.8346
55.1504
52.8047
46.7274
38.1747
30.1201
3.15659
3.18141
3.20272
3.22815
3.23912
3.25827
3.27386
3.31428
3.41092
3.70123
9.88196
53.9321
48.8472
42.5528
43.1771
44.9183
48.4208
50.7607
51.7099
49.2043
41.4733
33.0873
24.5626
3.14416
3.18281
3.19246
3.22093
3.2344
3.25512
3.27075
3.3114
3.40587
3.80411
12.7575
63.9364
48.1111
43.7307
43.9051
45.2839
47.4756
48.2569
48.8318
43.4134
35.4602
26.8419
19.3284
3.13984
3.17949
3.18928
3.20832
3.22763
3.24903
3.26664
3.30835
3.40222
3.88581
23.5215
59.604
45.8844
43.7494
44.1073
44.8569
45.5474
45.4843
43.6698
37.1228
28.8068
21.2365
15.8177
3.13574
3.1712
3.19079
3.20217
3.22268
3.24024
3.26163
3.30495
3.4053
4.12191
31.4877
52.0415
43.7759
43.0175
43.757
44.043
43.3727
41.9748
38.0146
30.6548
23.1905
17.5229
13.9475
3.12651
3.15982
3.1855
3.19175
3.21148
3.23096
3.2556
3.30134
3.41466
4.26809
33.1269
44.4388
42.0838
41.6322
42.502
42.1339
40.4212
37.6034
32.1205
25.3406
19.4566
15.4172
12.5496
3.11384
3.14941
3.17717
3.19084
3.20206
3.22001
3.24872
3.29689
3.406
5.21808
32.6379
41.5431
39.4534
39.8034
40.6801
39.5632
37.0134
32.8787
27.4863
21.7554
17.1183
13.8881
11.4042
3.09636
3.13881
3.16701
3.18189
3.18537
3.20658
3.24064
3.29298
3.50097
5.42485
25.0064
37.7933
36.9701
37.8168
38.3774
36.5868
33.2886
28.8211
24.3247
19.1913
15.4485
12.6579
10.4636
3.07807
3.12469
3.15164
3.17064
3.17019
3.19335
3.23112
3.28814
3.53601
5.74119
19.6553
31.4238
34.4718
35.4893
35.6185
33.4612
29.9601
25.955
21.9995
17.3055
14.1209
11.5555
9.64312
3.07337
3.10601
3.13314
3.15579
3.15461
3.1851
3.21982
3.28154
3.48491
5.79692
16.9541
27.559
32.0275
32.8835
32.7387
30.6725
27.3971
24.1635
20.2625
16.0568
12.9847
10.6145
8.85887
3.05832
3.08346
3.11189
3.13985
3.14338
3.17362
3.20648
3.27292
3.50683
5.99762
15.3139
24.9131
29.5824
30.3562
29.9635
28.4433
25.6795
22.7532
18.9728
14.883
11.8519
9.67143
8.18483
3.03703
3.05965
3.08533
3.11952
3.13165
3.15755
3.19097
3.26184
3.47788
5.23805
13.5824
22.1681
26.9273
27.6474
27.4621
26.5743
24.5493
21.5481
17.7108
13.6132
10.732
8.85896
7.43621
3.01365
3.03809
3.05623
3.09793
3.11346
3.1381
3.17253
3.24605
3.49876
5.85589
12.5833
19.8547
23.698
25.4044
25.3836
24.9675
23.5676
20.3302
16.28
12.3228
9.57664
7.87499
6.36165
2.98409
3.01243
3.02876
3.07037
3.08845
3.11399
3.15133
3.22504
3.44443
5.91907
11.753
17.2429
21.1187
23.407
23.5967
23.5197
22.4013
18.8858
14.7054
10.6701
8.12027
6.46291
5.20494
2.95264
2.98571
3.00392
3.04125
3.0604
3.08608
3.12545
3.20399
3.70195
5.92683
11.1532
15.3809
19.2327
21.7275
22.0159
22.0248
20.7891
17.4205
12.6592
8.73802
6.39159
5.32108
4.50215
2.91337
2.95031
2.97169
3.00435
3.02521
3.05334
3.09625
3.16995
3.55076
6.32358
10.7977
14.0439
18.0123
20.2499
20.5414
20.5944
19.2767
15.4112
10.2387
6.5571
5.2585
4.58732
4.07243
2.87243
2.9129
2.9374
2.96614
2.98692
3.01512
3.05987
3.14045
3.88544
6.31028
10.3241
13.1511
16.9441
18.8796
19.1159
19.0597
17.4849
12.8762
7.52407
5.20561
4.50479
4.03546
3.74817
2.82172
2.86442
2.8915
2.91796
2.94074
2.97228
3.02032
3.10015
3.92012
6.15104
10.1471
12.5149
16.1794
17.5691
17.7494
17.5855
15.291
9.99233
5.50505
4.38306
3.92939
3.64258
3.49671
2.77046
2.81534
2.8442
2.8692
2.8907
2.92119
2.97035
3.0547
3.92092
6.62285
9.77348
12.232
15.3996
16.3025
16.3335
15.8679
12.7018
7.19018
4.40058
3.79352
3.52133
3.38129
3.30892
2.70704
2.75275
2.78273
2.80756
2.83152
2.86646
2.91889
3.01803
4.11568
7.01126
9.27803
12.0867
14.5111
14.9952
15.1023
13.9896
9.97158
5.00538
3.73586
3.40385
3.27593
3.21849
3.18893
2.6452
2.69224
2.7225
2.74703
2.76795
2.80055
2.85412
2.98494
4.17967
7.6554
9.05328
11.8187
13.4989
13.7431
13.6996
11.7008
6.98066
3.85878
3.33086
3.17608
3.11769
3.09072
3.07535
2.56758
2.61437
2.64431
2.66918
2.69316
2.73249
2.78462
2.91483
4.89413
7.78937
8.90714
11.5813
12.5416
12.5623
12.1231
9.07675
4.55819
3.30544
3.08466
3.01679
2.98978
2.97696
2.97007
2.49545
2.54304
2.57195
2.59629
2.61547
2.65103
2.71089
3.16397
5.11684
8.44004
8.88783
11.3602
11.4968
11.4841
9.95392
6.14831
3.45326
3.00511
2.92107
2.89567
2.88836
2.8852
2.8843
2.40204
2.44834
2.47514
2.49932
2.52313
2.57026
2.64957
3.39653
5.71038
8.14391
8.83156
10.5379
10.3835
10.0036
7.46126
3.91964
2.96789
2.8261
2.79866
2.78954
2.78645
2.78665
2.7886
2.32174
2.3683
2.3927
2.41539
2.43281
2.47209
2.56068
3.76548
7.06861
7.72078
8.78614
9.80325
9.44196
7.99557
4.84969
3.02088
2.72333
2.68325
2.677
2.68043
2.6863
2.69347
2.69317
2.21121
2.25483
2.27483
2.2969
2.32362
2.38492
2.58582
3.95892
7.98814
7.42709
8.68618
8.88295
7.8927
5.65526
3.21091
2.6274
2.55619
2.55155
2.56525
2.57021
2.57857
2.58496
2.58962
2.12859
2.17199
2.18733
2.20729
2.22511
2.27449
2.53632
4.83525
7.68326
6.99683
8.12584
7.63757
6.09356
3.52268
2.61579
2.46413
2.4509
2.46314
2.47332
2.48487
2.49512
2.50495
2.50719
2.00117
2.03339
2.04408
2.06475
2.10217
2.17486
2.93429
5.5838
6.85893
6.44933
7.10098
6.08329
3.90789
2.57014
2.30994
2.28357
2.29828
2.31574
2.32399
2.32267
2.32607
2.34098
2.35249
1.9275
1.95642
1.96441
1.98347
2.00049
2.24992
3.29853
6.47693
5.87966
6.22053
6.16167
4.38656
2.701
2.26181
2.20093
2.198
2.22135
2.23609
2.24038
2.25181
2.25894
2.26606
2.27699
1.76262
1.77222
1.78147
1.82021
1.96722
2.60791
4.58106
5.17389
4.68172
4.85169
3.66233
2.46149
2.0174
1.94481
1.94482
1.97897
1.99654
2.01131
2.01321
2.01895
2.02817
2.02989
2.03247
3.10697
2.7989
2.60616
2.48429
2.40167
2.33998
2.30599
2.27417
2.2596
2.24498
2.24076
2.24658
2.26405
2.29467
2.34571
2.42524
2.53471
2.70555
2.84169
3.04211
3.21193
3.3918
3.58045
3.11568
2.80415
2.61794
2.4934
2.412
2.3462
2.31227
2.27869
2.26294
2.24944
2.24051
2.2461
2.26102
2.29022
2.34012
2.41737
2.52368
2.68203
2.81821
3.02053
3.18493
3.36857
3.59664
3.1238
2.82106
2.63499
2.50081
2.41668
2.35101
2.31811
2.28553
2.26618
2.25248
2.24104
2.24554
2.25849
2.28537
2.33135
2.40253
2.5056
2.65436
2.79406
2.99523
3.17925
3.33402
3.57812
3.13563
2.83169
2.64123
2.50467
2.42817
2.36489
2.32709
2.29118
2.26709
2.25444
2.24091
2.24286
2.25299
2.27581
2.31587
2.3793
2.47335
2.61226
2.75863
2.94363
3.12668
3.272
3.52376
3.14371
2.84198
2.65367
2.52267
2.44159
2.37227
2.32936
2.29535
2.26736
2.25588
2.24061
2.24051
2.24735
2.26525
2.29933
2.35542
2.44211
2.56073
2.72326
2.87264
3.06999
3.24977
3.44071
3.15127
2.84989
2.66445
2.52817
2.44408
2.37395
2.3297
2.2961
2.26675
2.25404
2.24026
2.2346
2.23845
2.25042
2.27542
2.31765
2.38774
2.48204
2.62885
2.75754
2.96738
3.14096
3.3695
3.15366
2.85284
2.66781
2.53116
2.44854
2.37854
2.33549
2.2995
2.27204
2.25902
2.24242
2.2356
2.23947
2.25011
2.27166
2.30903
2.37016
2.46213
2.6089
2.73658
2.94059
3.09552
3.35595
3.14536
2.84805
2.65604
2.51778
2.43039
2.35903
2.32306
2.29091
2.27033
2.25786
2.23862
2.23627
2.242
2.25739
2.28104
2.3287
2.3946
2.49647
2.63392
2.78408
3.02174
3.19683
3.46118
2.99023
2.65355
2.48325
2.38228
2.32393
2.2871
2.25705
2.24056
2.21822
2.22005
2.23843
2.28066
2.35981
2.4877
2.69489
2.96245
3.34303
3.83324
4.47258
4.96691
5.76249
6.46267
7.199
2.99994
2.65988
2.48499
2.38806
2.32616
2.29112
2.25938
2.24384
2.22156
2.22228
2.23263
2.26077
2.32105
2.4325
2.61972
2.87386
3.2329
3.70212
4.31545
4.79503
5.56669
6.18439
6.98104
3.00082
2.66452
2.48844
2.39426
2.33047
2.29349
2.2607
2.24588
2.22394
2.22369
2.23265
2.25714
2.30527
2.39438
2.54952
2.77657
3.11265
3.52574
4.1224
4.57523
5.31392
5.8566
6.6068
3.0108
2.67323
2.49242
2.39819
2.33269
2.29788
2.26297
2.24854
2.22773
2.2266
2.2344
2.25676
2.30135
2.38248
2.5214
2.72956
3.03898
3.41537
3.99048
4.41364
5.09114
5.60582
6.31066
3.01269
2.67838
2.49815
2.40534
2.33597
2.30039
2.26446
2.24972
2.23124
2.22877
2.23594
2.25463
2.29284
2.36086
2.47394
2.65406
2.93762
3.25925
3.78835
4.18939
4.82557
5.28784
5.90242
3.0236
2.68814
2.50438
2.40979
2.33977
2.30516
2.2674
2.25149
2.23399
2.23098
2.23772
2.25455
2.29134
2.35682
2.46313
2.6237
2.87325
3.16539
3.63755
4.00578
4.57066
4.9967
5.55553
3.02646
2.694
2.51189
2.41641
2.34302
2.30736
2.26956
2.25228
2.23732
2.23203
2.23829
2.25388
2.28629
2.34339
2.43698
2.57969
2.80322
3.06108
3.4628
3.81126
4.35209
4.71054
5.20683
3.03841
2.70513
2.52034
2.42393
2.34868
2.31162
2.27331
2.25391
2.23923
2.2337
2.23903
2.25293
2.2842
2.33787
2.42256
2.55093
2.74649
2.98589
3.31869
3.63987
4.09514
4.43292
4.87548
3.04198
2.71236
2.52821
2.42964
2.35234
2.31363
2.27593
2.25478
2.24235
2.23456
2.2395
2.2521
2.28143
2.3311
2.41037
2.52987
2.70691
2.93231
3.19598
3.49927
3.9169
4.20985
4.59818
3.05482
2.72576
2.53843
2.43972
2.35995
2.3179
2.28051
2.25698
2.24405
2.23584
2.24017
2.25181
2.27899
2.32531
2.39827
2.50799
2.66639
2.88798
3.10268
3.38234
3.74022
4.02285
4.43461
3.0588
2.73473
2.54757
2.44482
2.36452
2.31994
2.28342
2.25831
2.2471
2.23719
2.2409
2.25223
2.27755
2.32266
2.39337
2.49933
2.64418
2.85716
3.05665
3.3
3.61526
3.96427
4.16553
3.07254
2.75017
2.55847
2.45517
2.37302
2.32488
2.28842
2.26141
2.24883
2.23822
2.24142
2.25127
2.275
2.31722
2.38391
2.485
2.62232
2.83187
3.04006
3.22453
3.54804
3.84087
4.03034
3.07692
2.75994
2.57035
2.4614
2.3797
2.32742
2.29233
2.26325
2.25191
2.23996
2.24152
2.24952
2.273
2.31446
2.37973
2.47721
2.61077
2.81678
2.99613
3.18674
3.51575
3.75848
4.00797
3.09077
2.77583
2.58133
2.46974
2.38698
2.3321
2.29684
2.26668
2.25372
2.24109
2.24108
2.24855
2.27112
2.30948
2.3705
2.46362
2.59276
2.78519
2.96455
3.17233
3.45464
3.68638
3.87352
3.09631
2.78533
2.59518
2.47843
2.39651
2.33589
2.30194
2.26957
2.25725
2.24346
2.24087
2.24786
2.26891
2.30565
2.36344
2.45025
2.56776
2.75264
2.89854
3.11402
3.34162
3.5182
3.69311
2.90574
2.81321
2.85751
2.92037
3.01293
3.06234
3.09911
3.13089
3.15988
3.18051
3.22536
3.29506
3.405
3.58404
3.85391
4.27244
4.8137
5.48845
6.15095
6.7227
7.17271
7.62973
8.06266
2.89816
2.7806
2.81798
2.88831
2.98406
3.04763
3.08067
3.12175
3.15207
3.17368
3.22396
3.29134
3.40191
3.57939
3.84787
4.25841
4.78858
5.47429
6.15042
6.72338
7.18136
7.64265
8.07044
2.89509
2.74586
2.77923
2.84932
2.95048
3.0219
3.05893
3.11273
3.1437
3.17079
3.21843
3.28729
3.39775
3.57546
3.83854
4.24137
4.76774
5.4534
6.15173
6.72521
7.19044
7.66508
8.07854
2.89807
2.71135
2.73219
2.81239
2.91539
2.98865
3.03339
3.08703
3.12909
3.16839
3.21247
3.28201
3.39329
3.56931
3.83192
4.2206
4.73787
5.43394
6.15084
6.72718
7.20852
7.68759
8.09486
2.89962
2.6774
2.69142
2.76852
2.88185
2.96812
3.00769
3.06964
3.10861
3.15655
3.20565
3.27647
3.38837
3.5641
3.8227
4.2063
4.71258
5.41064
6.15004
6.73067
7.24078
7.73443
8.11962
2.90514
2.65238
2.64848
2.72711
2.83425
2.91956
2.97288
3.04047
3.08324
3.14283
3.19549
3.26931
3.38257
3.55633
3.81403
4.18889
4.69341
5.3971
6.14714
6.73716
7.28844
7.79525
8.1474
2.90988
2.62177
2.60508
2.68023
2.79239
2.8864
2.94303
3.0145
3.0577
3.12535
3.1834
3.25837
3.37438
3.54801
3.80274
4.17672
4.67118
5.36796
6.13506
6.75116
7.34642
7.85856
8.19922
2.91762
2.6079
2.56692
2.63304
2.73661
2.83474
2.9001
2.97925
3.0233
3.09884
3.16325
3.2439
3.36409
3.53677
3.79045
4.15804
4.64905
5.34192
6.11606
6.78287
7.40222
7.96934
8.2813
2.92292
2.59033
2.52865
2.58411
2.68027
2.78407
2.85705
2.94049
2.98565
3.06673
3.13752
3.22387
3.34982
3.52268
3.77409
4.14072
4.62832
5.30396
6.095
6.81375
7.45671
8.06128
8.3985
2.9276
2.58905
2.49799
2.53302
2.61736
2.72546
2.80451
2.89447
2.93904
3.02903
3.10644
3.19753
3.33093
3.50515
3.75671
4.12301
4.59833
5.25416
6.07006
6.82364
7.47476
8.16276
8.53568
2.93086
2.58884
2.47203
2.48609
2.55403
2.66122
2.74679
2.84085
2.88723
2.98541
3.06797
3.16551
3.30698
3.48294
3.73298
4.09703
4.57733
5.20775
6.03958
6.81886
7.51116
8.21276
8.68698
2.93267
2.5945
2.45319
2.43972
2.49111
2.59581
2.6825
2.78027
2.8254
2.9308
3.02272
3.12731
3.27702
3.45553
3.70606
4.07092