/*--------------------------------*- C++ -*----------------------------------*\
  =========                 |
  \\      /  F ield         | OpenFOAM: The Open Source CFD Toolbox
   \\    /   O peration     | Website:  https://openfoam.org
    \\  /    A nd           | Version:  7
     \\/     M anipulation  |
\*---------------------------------------------------------------------------*/
FoamFile
{
    version     2.0;
    format      ascii;
    class       surfaceScalarField;
    location    "50";
    object      phi;
}
// * * * * * * * * * * * * * * * * * * * * * * * * * * * * * * * * * * * * * //

dimensions      [0 3 -1 0 0 0 0];

internalField   nonuniform List<scalar> 
25449
(
63.81
64.0691
-41.5034
47.3719
47.7365
-31.2988
35.3109
35.7369
-23.676
26.4059
26.8151
-17.9101
19.7974
20.1479
-13.5393
14.8741
15.1521
-10.2288
11.196
11.4027
-7.72448
8.44225
8.58652
-5.83275
6.37728
6.47102
-4.40603
4.8269
4.88184
-3.33144
3.66178
3.68785
-2.52272
2.78557
2.79051
-1.9143
2.12614
2.11595
-1.45651
1.62942
1.60847
-1.11175
1.255
1.22597
-0.851549
0.972698
0.936666
-0.654358
0.759925
0.716871
-0.504096
0.59971
0.549144
-0.388929
0.479224
0.420666
-0.300181
0.388729
0.322007
-0.231514
0.320834
0.246104
-0.178208
0.269907
0.187852
-0.136926
0.14279
-0.104618
0.231736
47.7641
80.6839
35.5712
59.9291
26.5787
44.7293
19.9151
33.4787
14.9572
25.1059
11.2574
18.852
8.49079
14.1693
6.41878
10.6586
4.86486
8.02496
3.6981
6.04863
2.82107
4.56488
2.16116
3.45043
1.6639
2.61321
1.28851
1.98386
1.00472
1.50975
0.790104
1.15129
0.627928
0.879047
0.505596
0.671476
0.413524
0.512737
0.344378
0.391155
0.292539
0.297942
0.253709
0.226683
0.17185
0.22465
34.8356
92.4746
26.0779
68.6863
19.5631
51.244
14.7049
38.337
11.0734
28.7374
8.35538
21.5701
6.31948
16.2052
4.79347
12.1846
3.64865
9.16979
2.78887
6.9084
2.14243
5.21132
1.65575
3.9371
1.28849
2.98047
1.01042
2.26192
0.79941
1.72076
0.639213
1.31148
0.517769
1.00049
0.425948
0.763299
0.35674
0.581947
0.304728
0.443166
0.265729
0.336943
0.236525
0.255888
0.193707
0.21467
25.004
100.539
18.8854
74.8045
14.2633
55.8659
10.7773
41.8231
8.14979
31.3649
6.17242
23.5475
4.68645
17.6913
3.57066
13.3004
2.73283
10.0076
2.10327
7.53798
1.6297
5.68491
1.273
4.29382
1.00331
3.25017
0.798258
2.46698
0.641787
1.87724
0.522357
1.43092
0.431406
1.09144
0.362397
0.832309
0.310249
0.634096
0.270986
0.482431
0.241503
0.366425
0.219406
0.277987
0.210267
0.202848
17.7813
105.802
13.6316
78.9536
10.409
59.0883
7.93002
44.3021
6.0347
33.2602
4.59484
24.9874
3.50645
18.7797
2.68643
14.1205
2.06952
10.6246
1.60544
8.00206
1.25612
6.03424
0.992958
4.55698
0.793563
3.44957
0.641045
2.6195
0.523739
1.99454
0.433522
1.52113
0.364371
1.1606
0.31162
0.885063
0.271585
0.674134
0.241336
0.512681
0.218553
0.38921
0.201437
0.295104
0.223127
0.18858
12.6002
108.989
9.89295
81.6604
7.68297
61.2982
5.92526
46.0599
4.54965
34.6359
3.4887
26.0484
2.67906
19.5894
2.06557
14.734
1.60256
11.0876
1.25359
8.35107
0.990673
6.29718
0.792781
4.75489
0.642526
3.59984
0.526635
2.7354
0.436516
2.08467
0.366476
1.59118
0.312302
1.21478
0.270655
0.926712
0.238839
0.705951
0.214665
0.536858
0.196367
0.407509
0.18257
0.308905
0.233534
0.172165
8.95611
110.652
7.29189
83.3241
5.80249
62.7875
4.55103
47.3113
3.53565
35.6513
2.73466
26.8494
2.11459
20.2094
1.64065
15.208
1.28114
11.4471
1.00939
8.62281
0.80447
6.5021
0.65073
4.90863
0.533982
3.71659
0.443084
2.8263
0.37145
2.1563
0.315032
1.6476
0.270861
1.25895
0.236541
0.961036
0.21008
0.732416
0.189814
0.557126
0.174369
0.422957
0.162656
0.320619
0.242411
0.153782
6.43781
111.202
5.52061
84.2409
4.53685
63.7712
3.63418
48.2141
2.863
36.4225
2.236
27.4764
1.74163
20.7039
1.35959
15.5901
1.06786
11.7389
0.846302
8.8444
0.6787
6.66974
0.553384
5.03398
0.458186
3.81181
0.383155
2.90135
0.323121
2.21635
0.275184
1.69554
0.237198
1.29694
0.207352
0.990885
0.1841
0.755671
0.166122
0.575105
0.152314
0.436766
0.141758
0.331178
0.250446
0.133724
4.06369
112.5
3.0734
85.2308
2.31525
64.5293
1.74275
48.7866
1.31164
36.8536
0.991322
27.7967
0.755366
20.9398
0.582741
15.7627
0.456938
11.8647
0.365264
8.93607
0.298675
6.73632
0.251245
5.0814
0.216072
3.84699
0.187618
2.92981
0.163732
2.24023
0.143758
1.71551
0.127347
1.31336
0.114111
1.00413
0.103599
0.766188
0.0953528
0.583356
0.0889312
0.44319
0.0839755
0.336135
0.2543
0.0801246
2.30833
113.241
1.74382
85.7951
1.30846
64.9646
0.980589
49.1145
0.73477
37.0995
0.554518
27.977
0.424297
21.0701
0.331421
15.8557
0.265782
11.9304
0.219542
8.98235
0.187406
6.7685
0.166426
5.10242
0.151453
3.862
0.138213
2.94307
0.12576
2.2527
0.114364
1.72692
0.104365
1.32336
0.0958962
1.0126
0.0889044
0.773184
0.0832372
0.589026
0.0786957
0.447735
0.0751032
0.339731
0.257162
0.0722422
1.04745
113.583
0.787669
86.0546
0.58366
65.1687
0.43109
49.2671
0.31819
37.2124
0.23839
28.0568
0.184003
21.1245
0.14829
15.8914
0.125714
11.953
0.111907
8.99614
0.104343
6.77606
0.102326
5.10443
0.101877
3.86245
0.0995471
2.9454
0.0952713
2.25698
0.0900021
1.73219
0.0845709
1.3288
0.0794779
1.0177
0.0749596
0.777708
0.0710878
0.592903
0.0678402
0.450987
0.0651827
0.34239
0.259356
0.0629929
0.159618
113.646
0.113224
86.1008
0.0714395
65.2104
0.0417952
49.2968
0.0221529
37.2321
0.0127526
28.0663
0.0114676
21.1258
0.0157453
15.8871
0.0232761
11.9455
0.0321276
8.98732
0.0417713
6.76646
0.0531723
5.09307
0.0630775
3.85258
0.0685165
2.93999
0.0700309
2.25548
0.069058
1.73317
0.0667992
1.33106
0.0640275
1.02048
0.0611918
0.78055
0.0585269
0.595574
0.0561379
0.45338
0.0540981
0.344433
0.26111
0.052346
-0.448847
113.52
-0.350595
86.0024
-0.282029
65.1419
-0.228074
49.2428
-0.184294
37.1883
-0.145923
28.0279
-0.111236
21.0911
-0.079911
15.8558
-0.0520314
11.9176
-0.027835
8.96311
-0.00639867
6.74501
0.0144177
5.07225
0.031644
3.83535
0.042512
2.92912
0.0480359
2.24996
0.0500023
1.73121
0.0498796
1.33119
0.0486509
1.02171
0.0469227
0.782285
0.0450446
0.597458
0.0432121
0.455217
0.041568
0.346081
0.262586
0.0400969
-0.851842
113.271
-0.659512
85.81
-0.518868
65.0012
-0.410283
49.1343
-0.325083
37.1032
-0.255578
27.9584
-0.19748
21.0331
-0.148569
15.8069
-0.107468
11.8766
-0.0733161
8.92899
-0.0441434
6.71588
-0.0168424
5.04499
0.00561315
3.81293
0.0202851
2.91448
0.0285202
2.24174
0.0324341
1.72731
0.0336974
1.32994
0.033445
1.02197
0.032399
0.78334
0.0309947
0.59887
0.0294933
0.456724
0.028074
0.347502
0.26391
0.0267551
-1.10063
112.949
-0.852001
85.5613
-0.66794
64.8172
-0.526453
48.9928
-0.416363
36.993
-0.328247
27.8703
-0.256224
20.961
-0.196886
15.7476
-0.147962
11.8277
-0.107927
8.88893
-0.0740719
6.68201
-0.0425324
5.01343
-0.0164546
3.78685
0.000861303
2.89716
0.0108934
2.23171
0.016027
1.72217
0.0181268
1.32784
0.0184426
1.02166
0.0177735
0.784017
0.0166155
0.600036
0.0152746
0.458067
0.0139524
0.34883
0.265177
0.0126887
-1.24199
112.588
-0.963524
85.2827
-0.756156
64.6098
-0.597004
48.8337
-0.4736
36.8697
-0.375603
27.7723
-0.296223
20.8817
-0.231381
15.6828
-0.178322
11.7747
-0.135168
8.84581
-0.098685
6.64556
-0.0643404
4.97913
-0.0356608
3.75821
-0.016468
2.878
-0.00521548
2.22048
0.000670745
1.71631
0.00323113
1.32529
0.00383226
1.02107
0.00333611
0.784523
0.00227292
0.601107
0.000983742
0.459362
-0.000291033
0.350106
0.266416
-0.00152402
-1.30572
112.213
-1.01644
84.9935
-0.80023
64.3937
-0.634402
48.6679
-0.506036
36.7413
-0.404469
27.6707
-0.322493
20.7997
-0.255714
15.616
-0.201194
11.7201
-0.156936
8.80153
-0.119316
6.60792
-0.083148
4.94295
-0.052509
3.72756
-0.0319463
2.85743
-0.0198689
2.2084
-0.0135287
1.70997
-0.010754
1.32252
-0.0100644
1.02039
-0.0105402
0.785006
-0.0116319
0.602206
-0.0129753
0.460708
-0.0142804
0.351415
0.267661
-0.0155204
-1.31326
111.842
-1.02686
84.707
-0.812241
64.179
-0.647674
48.5034
-0.520383
36.6141
-0.419811
27.5702
-0.33868
20.7186
-0.272543
15.5499
-0.218497
11.6661
-0.174596
8.75766
-0.136917
6.57028
-0.0995769
4.90565
-0.067344
3.69537
-0.0457071
2.83583
-0.0330588
2.19578
-0.0264694
1.7034
-0.0236356
1.31969
-0.0229664
1.01973
-0.0235112
0.785562
-0.0246854
0.603387
-0.0261019
0.462128
-0.0274475
0.352763
0.268895
-0.0286765
-1.28393
111.488
-1.00939
84.4326
-0.803224
63.973
-0.645144
48.3453
-0.522899
36.4918
-0.426319
27.4736
-0.34828
20.6405
-0.284455
15.486
-0.232128
11.6138
-0.189531
8.71504
-0.152487
6.53321
-0.114293
4.86743
-0.0805488
3.66161
-0.0579296
2.8132
-0.0448238
2.18267
-0.0380918
1.69666
-0.0352739
1.31688
-0.034668
1.01912
-0.0353122
0.786213
-0.0365424
0.604624
-0.0379678
0.463556
-0.0393351
0.354133
0.270114
-0.0405503
-1.23024
111.157
-0.973469
84.1757
-0.780312
63.7798
-0.632188
48.1972
-0.517629
36.3773
-0.427036
27.383
-0.353586
20.5671
-0.293178
15.4256
-0.243395
11.5641
-0.202739
8.67441
-0.166796
6.49731
-0.127853
4.82853
-0.092482
3.62628
-0.0688293
2.78959
-0.0552801
2.16915
-0.0484274
1.68983
-0.045624
1.31408
-0.0450593
1.01857
-0.0457635
0.786929
-0.0470193
0.605888
-0.0483929
0.464932
-0.0497242
0.355467
0.271318
-0.0509234
-1.16606
110.853
-0.929682
83.9394
-0.751582
63.6018
-0.614979
48.0606
-0.509291
36.2716
-0.425562
27.2993
-0.357324
20.4989
-0.300755
15.3691
-0.253802
11.5171
-0.215326
8.63591
-0.180666
6.46261
-0.140806
4.78865
-0.103451
3.5889
-0.078571
2.76469
-0.0645136
2.15508
-0.0574842
1.68279
-0.0546356
1.31123
-0.0540543
1.01799
-0.0546917
0.787575
-0.0559161
0.607113
-0.0572242
0.466246
-0.0584872
0.356729
0.272478
-0.0596373
-1.09109
110.581
-0.877675
83.726
-0.716634
63.4407
-0.593094
47.9371
-0.497487
36.176
-0.421589
27.2234
-0.359322
20.4366
-0.307155
15.3169
-0.263463
11.4735
-0.227527
8.6
-0.194427
6.42955
-0.15351
4.74777
-0.113726
3.54916
-0.0873168
2.73832
-0.0725947
2.14039
-0.0652424
1.67546
-0.0622384
1.30823
-0.061588
1.01735
-0.0620499
0.788047
-0.0630994
0.608172
-0.0642809
0.46742
-0.0654194
0.357882
0.273516
-0.0664596
-1.00945
110.341
-0.820841
83.5375
-0.678296
63.2982
-0.568867
47.8277
-0.484038
36.0911
-0.416277
27.1556
-0.359939
20.3803
-0.312001
15.269
-0.271521
11.433
-0.238336
8.56678
-0.207142
6.39832
-0.165126
4.70572
-0.122685
3.50669
-0.094774
2.71039
-0.0794303
2.12503
-0.0716577
1.66768
-0.0684668
1.30504
-0.067676
1.01656
-0.0679555
0.788333
-0.0687288
0.608944
-0.0695128
0.468208
-0.0702179
0.358592
0.274219
-0.0709101
-0.90413
110.08
-0.713833
83.3471
-0.576034
63.1604
-0.474987
47.7267
-0.400532
36.0167
-0.344989
27.1001
-0.302763
20.3381
-0.269873
15.2361
-0.243908
11.4071
-0.223416
8.54631
-0.202757
6.37769
-0.171171
4.67418
-0.135353
3.47091
-0.109573
2.68465
-0.0943099
2.1098
-0.0856575
1.65905
-0.0814949
1.30089
-0.0794619
1.01455
-0.0783684
0.78725
-0.0776363
0.608216
-0.0770688
0.467645
-0.0766613
0.358192
0.274017
-0.0764465
-0.87829
109.833
-0.697761
83.1667
-0.566932
63.0296
-0.470989
47.6307
-0.400348
35.946
-0.34775
27.0475
-0.307868
20.2982
-0.276837
15.205
-0.252375
11.3826
-0.233148
8.52705
-0.213147
6.35765
-0.180307
4.6413
-0.141922
3.43249
-0.114209
2.65691
-0.0977165
2.09329
-0.0882269
1.64955
-0.0835012
1.29616
-0.0805373
1.01159
-0.0783419
0.785062
-0.0763715
0.606242
-0.0746435
0.465923
-0.0732221
0.356777
0.272916
-0.0721071
-0.853105
109.599
-0.681821
82.9954
-0.557578
62.9053
-0.466453
47.5396
-0.399415
35.8791
-0.349585
26.9977
-0.311867
20.2605
-0.282514
15.1757
-0.259429
11.3596
-0.241443
8.50909
-0.222098
6.33833
-0.187891
4.60713
-0.146767
3.3914
-0.117051
2.62723
-0.0992835
2.07556
-0.0891793
1.63947
-0.0837784
1.29077
-0.0798407
1.00767
-0.0765968
0.781829
-0.0735218
0.603173
-0.0707289
0.463136
-0.0683792
0.354434
0.270991
-0.0664403
-0.828566
109.377
-0.666061
82.833
-0.548061
62.7874
-0.461503
47.453
-0.39788
35.8154
-0.350671
26.9504
-0.314998
20.2248
-0.287238
15.1479
-0.265498
11.3378
-0.248785
8.49234
-0.230134
6.31964
-0.194439
4.57139
-0.1503
3.34723
-0.118424
2.59532
-0.0993081
2.05642
-0.0888078
1.62895
-0.0826748
1.28463
-0.0778192
1.00281
-0.0736459
0.777664
-0.0696976
0.599219
-0.0659993
0.459444
-0.0628593
0.3513
0.268374
-0.0602281
-0.804692
109.168
-0.650539
82.6788
-0.538474
62.6753
-0.456256
47.3709
-0.395882
35.7551
-0.351172
26.9058
-0.317458
20.1911
-0.291233
15.1217
-0.270821
11.3175
-0.255421
8.47696
-0.237515
6.30176
-0.200203
4.53411
-0.152717
3.29977
-0.118485
2.56112
-0.0979688
2.03593
-0.0873064
1.61831
-0.0804664
1.27781
-0.0747479
0.997113
-0.069768
0.772693
-0.0651681
0.594626
-0.0608495
0.45513
-0.0571524
0.347609
0.265296
-0.0540615
-0.781491
108.969
-0.635301
82.5327
-0.528889
62.569
-0.450805
47.2928
-0.393529
35.6977
-0.351209
26.8634
-0.319374
20.1592
-0.294632
15.0969
-0.275537
11.2984
-0.261501
8.46288
-0.244404
6.28461
-0.20534
4.495
-0.154127
3.24852
-0.117282
2.52424
-0.0954035
2.01403
-0.0848433
1.60773
-0.0773225
1.27028
-0.0708637
0.990654
-0.065231
0.767068
-0.0601263
0.589514
-0.055515
0.450525
-0.0515394
0.343637
0.261976
-0.0482064
-0.758962
108.782
-0.620375
82.3941
-0.519357
62.4679
-0.445216
47.2187
-0.390899
35.6435
-0.350867
26.8234
-0.320837
20.1292
-0.29753
15.0737
-0.279745
11.2806
-0.267131
8.45028
-0.250917
6.26842
-0.209961
4.45407
-0.154598
3.19318
-0.114814
2.48449
-0.0918409
1.99108
-0.08155
1.59746
-0.0733127
1.26206
-0.0663674
0.983726
-0.0604003
0.761109
-0.0549476
0.58407
-0.0502124
0.445794
-0.0461263
0.339556
0.258583
-0.0427211
-0.737099
108.605
-0.605781
82.2629
-0.509916
62.3722
-0.439542
47.1483
-0.388056
35.5919
-0.350216
26.7855
-0.321923
20.1009
-0.300006
15.0517
-0.283529
11.2641
-0.272401
8.43912
-0.257156
6.25313
-0.214167
4.41104
-0.154157
3.13313
-0.111039
2.44133
-0.0875541
1.96756
-0.0774592
1.58734
-0.0686106
1.2532
-0.0614995
0.976611
-0.0554027
0.755018
-0.0498937
0.578552
-0.0451404
0.441046
-0.0410749
0.335493
0.255205
-0.0376866
-0.715892
108.438
-0.591532
82.1384
-0.500596
62.2812
-0.433825
47.0816
-0.385048
35.5432
-0.349313
26.7498
-0.322691
20.0743
-0.302121
15.0312
-0.286953
11.249
-0.277383
8.42956
-0.263199
6.23896
-0.218041
4.3659
-0.152796
3.0679
-0.105916
2.39446
-0.0826994
1.94437
-0.0725156
1.57718
-0.0634514
1.24415
-0.0565349
0.96971
-0.0503352
0.748823
-0.0449496
0.573176
-0.0402333
0.436333
-0.0363234
0.331587
0.251983
-0.0330926
-0.695332
108.28
-0.577638
82.0209
-0.49142
62.195
-0.428099
47.0182
-0.381918
35.497
-0.348203
26.7161
-0.323192
20.0493
-0.303928
15.0119
-0.290069
11.2351
-0.282132
8.42159
-0.269115
6.2259
-0.221654
4.31839
-0.1505
2.9967
-0.0995909
2.34351
-0.0772718
1.92201
-0.0667658
1.56665
-0.0580061
1.23538
-0.0514385
0.963134
-0.0453072
0.742696
-0.0401081
0.567967
-0.0355007
0.43173
-0.0318151
0.327902
0.248988
-0.0288123
-0.675407
108.131
-0.564104
81.9095
-0.482408
62.1133
-0.422391
46.9582
-0.3787
35.4533
-0.346927
26.6843
-0.323468
20.0258
-0.305469
14.9939
-0.29292
11.2226
-0.286713
8.41539
-0.275013
6.21421
-0.225155
4.26855
-0.147338
2.9189
-0.0924227
2.28861
-0.0711588
1.90076
-0.0603435
1.55585
-0.0523246
1.22737
-0.0461475
0.956967
-0.0403862
0.736935
-0.0353473
0.562939
-0.0310695
0.427453
-0.0276558
0.324488
0.246224
-0.0248892
-0.656104
107.991
-0.550933
81.8044
-0.473573
62.036
-0.416725
46.9014
-0.375423
35.4119
-0.345519
26.6544
-0.323556
20.0039
-0.306783
14.9771
-0.295554
11.2114
-0.291222
8.41102
-0.28105
6.20399
-0.22854
4.21599
-0.143082
2.83339
-0.084672
2.23014
-0.0644126
1.88046
-0.0536632
1.54507
-0.0464644
1.22016
-0.0407269
0.951216
-0.0356349
0.731843
-0.0308424
0.558135
-0.0269434
0.423557
-0.023824
0.321366
0.243718
-0.0213158
-0.637409
107.86
-0.538126
81.7051
-0.464927
61.9628
-0.41112
46.8476
-0.372113
35.373
-0.344008
26.6263
-0.323489
19.9834
-0.307903
14.9615
-0.298024
11.2015
-0.29573
8.40873
-0.287238
6.19551
-0.231376
4.16014
-0.136588
2.7386
-0.0762795
2.16983
-0.057298
1.86148
-0.0470445
1.53483
-0.0406734
1.2138
-0.0353338
0.945882
-0.0309342
0.727439
-0.0266546
0.553866
-0.0231697
0.420071
-0.0203253
0.31852
0.241439
-0.0180488
-0.61931
107.737
-0.525684
81.6116
-0.456481
61.8937
-0.405594
46.7967
-0.368792
35.3361
-0.34242
26.5999
-0.323295
19.9642
-0.308867
14.9471
-0.300368
11.193
-0.300153
8.40848
-0.293315
6.18862
-0.233917
4.10068
-0.128285
2.63292
-0.0668801
2.10838
-0.0491691
1.84373
-0.0401897
1.52582
-0.0349966
1.20858
-0.0300665
0.940933
-0.0261427
0.723512
-0.022585
0.550298
-0.0195864
0.417074
-0.0170941
0.316022
0.239431
-0.0150897
-0.601792
107.621
-0.513605
81.5233
-0.448243
61.8282
-0.400162
46.7487
-0.365481
35.3015
-0.340779
26.5752
-0.323002
19.9465
-0.3097
14.9338
-0.302583
11.1859
-0.304446
8.41035
-0.299321
6.1835
-0.236927
4.03829
-0.119903
2.51589
-0.0560683
2.04452
-0.0394073
1.82706
-0.0329505
1.51936
-0.0292324
1.20488
-0.0250714
0.936772
-0.0216001
0.720032
-0.0186325
0.547342
-0.0160433
0.414482
-0.0139122
0.313886
0.237775
-0.0122638
-0.584842
107.513
-0.501888
81.4405
-0.44022
61.7667
-0.394838
46.7032
-0.362198
35.2688
-0.339108
26.5521
-0.322635
19.93
-0.310418
14.9215
-0.304669
11.1802
-0.308795
8.41443
-0.305702
6.18036
-0.240279
3.97281
-0.111888
2.38744
-0.0448859
1.97747
-0.0284029
1.81053
-0.0246353
1.51556
-0.0231567
1.20338
-0.0206184
0.93421
-0.0177341
0.717141
-0.0151721
0.544771
-0.0128978
0.412208
-0.0110581
0.312038
0.236432
-0.00972542
-0.568447
107.412
-0.490531
81.3625
-0.432419
61.7085
-0.389634
46.6605
-0.35896
35.2381
-0.337426
26.5306
-0.322214
19.9148
-0.311034
14.9104
-0.306666
11.1758
-0.313461
8.42123
-0.3124
6.17929
-0.242259
3.90267
-0.104494
2.24965
-0.0352865
1.90822
-0.0168854
1.79211
-0.015321
1.514
-0.0169522
1.20501
-0.0162412
0.933493
-0.0141257
0.715012
-0.0122237
0.54288
-0.010502
0.410483
-0.00892595
0.310456
0.235257
-0.00776343
-0.552593
107.318
-0.479533
81.2896
-0.424845
61.6539
-0.384561
46.6202
-0.355782
35.2093
-0.335753
26.5105
-0.321758
19.9007
-0.311563
14.9001
-0.308617
11.1729
-0.318523
8.4311
-0.319696
6.18042
-0.24236
3.82527
-0.0934162
2.10065
-0.023161
1.83792
-0.00582074
1.77473
-0.00710291
1.51525
-0.0108455
1.20873
-0.0114241
0.934045
-0.0104069
0.713985
-0.00931255
0.541778
-0.00829535
0.409464
-0.00721195
0.309364
0.234236
-0.00620661
-0.537268
107.231
-0.468889
81.2211
-0.417504
61.6024
-0.379631
46.5824
-0.35268
35.1824
-0.334107
26.492
-0.321285
19.8879
-0.31202
14.8909
-0.310585
11.1715
-0.323984
8.4445
-0.327906
6.18434
-0.243898
3.74124
-0.0754578
1.93217
-0.00420919
1.76662
0.00413624
1.76636
-0.000731112
1.52012
-0.00497208
1.21298
-0.00653025
0.93559
-0.00667285
0.71411
-0.00626447
0.54138
-0.00576184
0.408956
-0.00514331
0.308736
0.233554
-0.00448106
-0.522459
107.151
-0.458599
81.1574
-0.410399
61.5543
-0.374854
46.5468
-0.349668
35.1572
-0.332503
26.4748
-0.32081
19.8762
-0.312421
14.8825
-0.31273
11.1718
-0.330286
8.46202
-0.335086
6.18909
-0.243478
3.64958
-0.055683
1.7443
0.0143001
1.69658
0.0138929
1.76673
0.00558836
1.5284
1.83404e-05
1.21853
-0.00281513
0.938394
-0.00357439
0.714855
-0.00356652
0.541367
-0.0033972
0.408782
-0.00326374
0.308591
0.233305
-0.0030354
-0.508154
107.076
-0.448658
81.0978
-0.403536
61.5092
-0.370238
46.5135
-0.346757
35.1337
-0.330956
26.459
-0.320344
19.8656
-0.312797
14.8749
-0.315246
11.1742
-0.337519
8.48429
-0.339196
6.19076
-0.234644
3.54499
-0.0329704
1.54256
0.0291309
1.63444
0.0236394
1.7722
0.0119233
1.54011
0.00391174
1.22653
0.000115345
0.942171
-0.0010055
0.715955
-0.00159342
0.541962
-0.00183403
0.409016
-0.00194626
0.308693
0.233224
-0.00189029
-0.49434
107.008
-0.439065
81.0427
-0.396919
61.4671
-0.365792
46.4824
-0.343962
35.1118
-0.329482
26.4445
-0.319903
19.856
-0.313202
14.8682
-0.318224
11.1793
-0.344966
8.51099
-0.340616
6.18637
-0.226893
3.43121
-0.00821976
1.32377
0.0429236
1.58325
0.0321064
1.78298
0.0172112
1.55498
0.00752737
1.2362
0.00295214
0.946715
0.00102084
0.717869
-0.000141037
0.543121
-0.000635945
0.409504
-0.000882773
0.308927
0.233333
-0.00101822
-0.481008
106.945
-0.429817
80.9914
-0.390551
61.4278
-0.361527
46.4534
-0.341295
35.0916
-0.328094
26.4313
-0.319503
19.8475
-0.313691
14.8624
-0.321697
11.1873
-0.352267
8.54156
-0.340204
6.17429
-0.231935
3.32287
0.0185337
1.0731
0.0583174
1.54343
0.0402026
1.80107
0.0220642
1.57311
0.0112553
1.247
0.00540399
0.95254
0.00244744
0.720803
0.000976659
0.544599
0.000257461
0.410214
-0.000150564
0.309324
0.233634
-0.000480508
-0.468144
106.888
-0.42091
80.9443
-0.384434
61.3914
-0.357447
46.4264
-0.338765
35.0729
-0.326806
26.4193
-0.319167
19.8398
-0.314329
14.8576
-0.325623
11.1986
-0.358694
8.57459
-0.337324
6.15288
-0.249595
3.23509
0.0418047
0.781488
0.0791819
1.50602
0.051582
1.82865
0.0280167
1.59665
0.0148795
1.26012
0.0072687
0.960118
0.00346438
0.724589
0.00175787
0.546305
0.00076034
0.411205
0.000194143
0.309878
0.234059
-0.000258346
-0.455742
106.837
-0.412348
80.9008
-0.378579
61.3575
-0.353568
46.4014
-0.33639
35.0557
-0.325636
26.4085
-0.318912
19.8331
-0.315118
14.8538
-0.329853
11.2133
-0.363977
8.60871
-0.330939
6.11982
-0.174327
3.07839
0.0683388
0.538645
0.107008
1.46731
0.066532
1.8691
0.0351448
1.62803
0.0181604
1.27709
0.00875314
0.969498
0.0044618
0.72886
0.00284326
0.547922
0.0017181
0.412332
0.000982185
0.3106
0.234602
0.000422396
-0.428698
106.771
-0.379613
80.8518
-0.344503
61.3225
-0.320101
46.377
-0.30424
35.0398
-0.294937
26.3992
-0.289559
19.8277
-0.287321
14.8515
-0.304116
11.2302
-0.335561
8.64012
-0.294001
6.07823
-0.105235
2.88958
0.0770332
0.356301
0.120335
1.42398
0.0768026
1.91261
0.0407769
1.66404
0.0200775
1.29779
0.00904337
0.980501
0.00443583
0.733444
0.0032455
0.549118
0.00229413
0.413257
0.00138094
0.31155
0.235264
0.000674073
-0.34088
106.719
-0.302108
80.813
-0.274388
61.2947
-0.255162
46.3578
-0.242734
35.0274
-0.235548
26.392
-0.231471
19.8236
-0.230257
14.8503
-0.245653
11.2456
-0.270026
8.66449
-0.226211
6.0344
-0.0555963
2.71888
0.0759619
0.224648
0.109405
1.39049
0.0748987
1.9471
0.0414871
1.69744
0.0197244
1.31954
0.00753231
0.992667
0.0020643
0.738892
0.000449522
0.550722
-0.000388096
0.414111
-0.00147421
0.312619
0.236087
-0.00227589
-0.271028
106.677
-0.240387
80.7825
-0.21849
61.2729
-0.203329
46.3426
-0.193577
35.0176
-0.188018
26.3864
-0.184953
19.8205
-0.184491
14.8498
-0.198117
11.2592
-0.216535
8.68287
-0.173632
5.99146
-0.0282313
2.57344
0.0704816
0.125895
0.0950745
1.36587
0.0687338
1.97342
0.0395174
1.72664
0.0188135
1.34025
0.00652066
1.00493
0.000538349
0.744857
-0.00160913
0.552858
-0.00233915
0.414837
-0.00341524
0.313706
0.236941
-0.00427501
-0.215445
106.645
-0.191197
80.7581
-0.173872
61.2555
-0.161894
46.3307
-0.154221
35.01
-0.149904
26.3821
-0.147607
19.8183
-0.147638
14.8499
-0.159375
11.271
-0.173083
8.69657
-0.132729
5.95109
-0.0115825
2.4522
0.0637974
0.0504397
0.081078
1.34855
0.0607328
1.99375
0.0358718
1.75149
0.0172579
1.35887
0.00568706
1.01648
-0.000332745
0.750859
-0.00284331
0.555357
-0.0034987
0.415491
-0.00448235
0.314688
0.237723
-0.00526537
-0.171232
106.619
-0.15202
80.739
-0.138294
61.2419
-0.128815
46.3211
-0.122764
35.0039
-0.1194
26.3788
-0.117684
19.8165
-0.118008
14.8502
-0.127936
11.2809
-0.138073
8.70667
-0.101148
5.91414
-0.00173334
2.35276
0.0565482
-0.00786532
0.0684532
1.33662
0.0522684
2.00992
0.0314364
1.77231
0.0152861
1.37503
0.00485792
1.02689
-0.000925316
0.75663
-0.00356496
0.557984
-0.00422514
0.416145
-0.00493264
0.315396
0.238275
-0.00548647
-0.136017
106.598
-0.120737
80.7237
-0.109817
61.2309
-0.102277
46.3137
-0.0974701
34.9991
-0.0948203
26.3761
-0.0935203
19.8152
-0.0939827
14.8507
-0.10223
11.2892
-0.109674
8.71411
-0.0765559
5.88101
0.00363443
2.27248
0.0485941
-0.0528927
0.0569933
1.32818
0.0440746
2.02282
0.0268313
1.78954
0.0131486
1.38871
0.00402972
1.03598
-0.00137258
0.762017
-0.00403438
0.560633
-0.00480901
0.416915
-0.00515603
0.31574
0.238586
-0.00546804
-0.10828
106.582
-0.0963122
80.7118
-0.0877696
61.2225
-0.0818911
46.3077
-0.0781756
34.9953
-0.0761805
26.3741
-0.0752844
19.8143
-0.0758913
14.8513
-0.0828533
11.2962
-0.0884909
8.71972
-0.0590401
5.85153
0.0065281
2.20689
0.0414391
-0.0878191
0.0474858
1.32211
0.0372377
2.03306
0.0228885
1.80388
0.0113178
1.40029
0.0034292
1.04385
-0.00149334
0.766931
-0.00403457
0.563164
-0.00489839
0.417771
-0.00497288
0.315814
0.238673
-0.00506205
-0.0857766
106.569
-0.0760766
80.702
-0.0691353
61.2155
-0.0643398
46.303
-0.0612852
34.9923
-0.0596208
26.3724
-0.0588683
19.8136
-0.0593821
14.8518
-0.0649244
11.3017
-0.0689875
8.72377
-0.0438475
5.82638
0.00783557
2.15512
0.0341359
-0.114184
0.0381123
1.31809
0.0300653
2.04109
0.018477
1.81545
0.00903254
1.40974
0.00251787
1.05034
-0.00172436
0.771161
-0.00404177
0.565468
-0.00496469
0.41869
-0.00486387
0.315708
0.238473
-0.00466492
-0.0747157
106.554
-0.0630606
80.6905
-0.0544434
61.2069
-0.0482716
46.2968
-0.0441413
34.9881
-0.0417193
26.37
-0.0405324
19.8124
-0.0407548
14.852
-0.0460059
11.307
-0.0513775
8.72911
-0.0323099
5.80728
0.0120206
2.11078
0.044365
-0.146538
0.0622516
1.30019
0.0606286
2.0427
0.0492571
1.82682
0.0379085
1.4211
0.0292956
1.05894
0.0231627
0.777289
0.0194141
0.56921
0.0177741
0.420323
0.0178804
0.315601
0.238046
0.0183041
-0.0784374
106.538
-0.0662006
80.6782
-0.0571518
61.1978
-0.0506723
46.2904
-0.0463409
34.9838
-0.0438166
26.3675
-0.04262
19.8112
-0.0429587
14.8523
-0.0486196
11.3127
-0.0539673
8.73444
-0.0323886
5.78569
0.0146163
2.06368
0.0460834
-0.178069
0.0649375
1.28129
0.0646909
2.04293
0.0534223
1.83807
0.0415223
1.433
0.0323674
1.06807
0.0259011
0.783746
0.021829
0.573269
0.0198439
0.422304
0.0197974
0.315642
0.237747
0.0200949
-0.0823444
106.521
-0.0694969
80.6654
-0.0599944
61.1884
-0.0531916
46.2835
-0.0486488
34.9792
-0.0460167
26.3648
-0.0448093
19.81
-0.0452664
14.8528
-0.0513508
11.3188
-0.056625
8.73969
-0.0326842
5.76173
0.017348
2.01364
0.0476579
-0.208384
0.0672308
1.2617
0.068719
2.04144
0.0578712
1.84891
0.0455345
1.44534
0.0357921
1.0778
0.028999
0.790537
0.0246295
0.577633
0.0222928
0.424633
0.0219296
0.316003
0.237639
0.022034
-0.0864462
106.503
-0.0729571
80.6519
-0.0629781
61.1784
-0.0558356
46.2764
-0.0510705
34.9745
-0.0483248
26.3621
-0.0471052
19.8087
-0.0476853
14.8534
-0.0542234
11.3254
-0.0593333
8.74478
-0.0329917
5.73537
0.020153
1.96041
0.0491617
-0.237455
0.069285
1.24153
0.072682
2.03802
0.0625221
1.85906
0.0498937
1.45797
0.0395374
1.08814
0.0323553
0.797712
0.0276691
0.582306
0.0249544
0.427345
0.0241166
0.316835
0.237813
0.0239403
-0.090752
106.485
-0.0765897
80.6378
-0.0661103
61.168
-0.0586107
46.2689
-0.0536119
34.9694
-0.0507465
26.3592
-0.0495135
19.8075
-0.0502223
14.8541
-0.0572664
11.3324
-0.0620717
8.74956
-0.0321595
5.70543
0.0235191
1.90473
0.050368
-0.264306
0.0710571
1.22083
0.0765387
2.03254
0.0673037
1.86829
0.0545504
1.47073
0.0436001
1.09908
0.0359395
0.805374
0.0308754
0.587366
0.0277351
0.430476
0.0263071
0.318261
0.238371
0.025746
-0.0952728
106.465
-0.0804032
80.6229
-0.0693981
61.1569
-0.0615235
46.2611
-0.056279
34.9642
-0.0532877
26.3562
-0.0520397
19.8063
-0.0528837
14.8549
-0.0605034
11.3401
-0.0649478
8.75399
-0.0219482
5.66242
0.0338226
1.84886
0.0512633
-0.281809
0.0725044
1.19954
0.0802585
2.02476
0.0721581
1.87637
0.0594545
1.48342
0.0479637
1.11056
0.039732
0.8136
0.0341909
0.592893
0.0305682
0.434096
0.0285094
0.320313
0.239409
0.0274685
-0.100018
106.445
-0.0844066
80.6074
-0.0728496
61.1454
-0.0645809
46.2528
-0.0590781
34.9586
-0.0559543
26.3531
-0.05469
19.805
-0.0556758
14.8559
-0.0638803
11.3483
-0.0679893
8.75807
-0.0105606
5.60497
0.0455231
1.79277
0.0522665
-0.288554
0.0738628
1.17794
0.0838221
2.0148
0.0770362
1.88316
0.0645648
1.4959
0.0526049
1.12251
0.0437223
0.822486
0.0375966
0.599014
0.0334323
0.43825
0.0307555
0.322988
0.240976
0.0291844
-0.105001
106.423
-0.0886095
80.5909
-0.0764725
61.1332
-0.0677901
46.2441
-0.0620159
34.9529
-0.0587526
26.3498
-0.0574702
19.8037
-0.0586053
14.8571
-0.0673996
11.3571
-0.0711878
8.76184
-0.00724519
5.541
0.0514383
1.73399
0.0534095
-0.290592
0.0751462
1.15615
0.0872027
2.00273
0.0818822
1.88846
0.0698301
1.50794
0.0574923
1.13484
0.0479062
0.832068
0.0411003
0.605805
0.0363457
0.443003
0.0330788
0.326248
0.243072
0.0309799
-0.110232
106.401
-0.0930219
80.5738
-0.0802758
61.1206
-0.0711586
46.235
-0.0650992
34.9468
-0.061689
26.3464
-0.0603869
19.8024
-0.0616789
14.8583
-0.0710737
11.3665
-0.07453
8.76527
-0.00450929
5.47096
0.0571293
1.67234
0.0548547
-0.288317
0.076353
1.13465
0.0903749
1.9887
0.0866382
1.8922
0.0751854
1.5194
0.0625896
1.14743
0.052285
0.842376
0.0447273
0.613359
0.0393462
0.448373
0.0355281
0.330065
0.245659
0.0329379
-0.115723
106.377
-0.097654
80.5556
-0.0842683
61.1071
-0.0746945
46.2254
-0.0683354
34.9404
-0.0647706
26.3428
-0.0634467
19.8011
-0.064904
14.8598
-0.0749138
11.3766
-0.0780061
8.76835
-0.00131982
5.39425
0.0633358
1.60758
0.0566472
-0.281698
0.0775356
1.11371
0.0933147
1.9729
0.0912449
1.89425
0.0805626
1.53007
0.0678561
1.16012
0.0568626
0.853365
0.048512
0.621695
0.0424872
0.454396
0.0381595
0.334384
0.248679
0.0351361
-0.121488
106.352
-0.102517
80.5368
-0.0884598
61.0931
-0.0784062
46.2153
-0.0717321
34.9337
-0.0680045
26.3391
-0.0666568
19.7997
-0.0682882
14.8614
-0.0789306
11.3872
-0.0816226
8.77102
0.0019592
5.31065
0.0698258
1.5397
0.0587865
-0.270657
0.0786482
1.09385
0.096001
1.95555
0.0956514
1.8946
0.0858977
1.53982
0.0732331
1.17279
0.0616257
0.864976
0.0524946
0.630823
0.0458239
0.461056
0.0410288
0.339179
0.252072
0.0376323
-0.127541
106.326
-0.107622
80.5168
-0.0928596
61.0783
-0.0823024
46.2048
-0.0752974
34.9267
-0.0713983
26.3352
-0.0700245
19.7983
-0.0718394
14.8633
-0.0831346
11.3985
-0.0853815
8.77324
0.0053237
5.21992
0.0762964
1.4686
0.0609987
-0.255432
0.0795679
1.07523
0.0984157
1.93668
0.0998138
1.89319
0.0911203
1.54851
0.0786393
1.18526
0.066538
0.877072
0.0566989
0.640648
0.049411
0.468343
0.0441782
0.344403
0.255785
0.0404621
-0.133895
106.299
-0.112982
80.496
-0.0974788
61.0629
-0.0863924
46.1937
-0.0790397
34.9193
-0.0749602
26.3311
-0.0735576
19.7969
-0.0755662
14.8653
-0.0875341
11.4105
-0.0892838
8.77497
0.00881223
5.12179
0.0825027
1.39488
0.0632906
-0.236217
0.0803343
1.05819
0.100543
1.91647
0.103679
1.89006
0.0961448
1.55605
0.0839901
1.19741
0.0715647
0.889501
0.0611406
0.65107
0.0532812
0.476191
0.047642
0.350042
0.259777
0.0436474
-0.140567
106.27
-0.118609
80.4739
-0.102328
61.0466
-0.0906859
46.1821
-0.082968
34.9116
-0.0786985
26.3268
-0.0772642
19.7955
-0.0794775
14.8675
-0.0921402
11.4232