/*--------------------------------*- C++ -*----------------------------------*\
  =========                 |
  \\      /  F ield         | OpenFOAM: The Open Source CFD Toolbox
   \\    /   O peration     | Website:  https://openfoam.org
    \\  /    A nd           | Version:  7
     \\/     M anipulation  |
\*---------------------------------------------------------------------------*/
FoamFile
{
    version     2.0;
    format      ascii;
    class       volScalarField;
    location    "50";
    object      yPlus;
}
// * * * * * * * * * * * * * * * * * * * * * * * * * * * * * * * * * * * * * //

dimensions      [0 0 0 0 0 0 0];

internalField   uniform 0;

boundaryField
{
    inlet
    {
        type            calculated;
        value           uniform 0;
    }
    outlet
    {
        type            calculated;
        value           uniform 0;
    }
    suction_side
    {
        type            calculated;
        value           nonuniform List<scalar> 
56
(
30.2759
32.4546
35.3554
37.9924
40.5351
43.3375
45.4907
48.366
50.2514
51.8516
53.744
52.9981
50.1131
44.0688
29.7018
24.1804
30.7731
32.0475
30.4906
30.9023
30.4094
29.4003
27.1189
20.0214
22.7425
24.2114
24.178
23.5828
22.6901
21.7188
20.7355
19.6285
18.4058
17.1911
16.0449
14.9206
14.1282
13.6648
13.505
13.6813
14.0003
14.3532
14.9372
15.5938
15.7412
15.809
15.7031
15.2517
14.2243
14.0394
19.5296
26.1058
24.9937
19.8853
16.5029
12.781
)
;
    }
    pressure_side
    {
        type            calculated;
        value           nonuniform List<scalar> 
56
(
33.2009
33.9984
34.3493
34.8992
35.2407
35.5975
35.8581
36.167
36.4842
36.7441
36.9427
37.0813
37.1272
37.1065
37.0287
36.9375
36.8811
36.8895
36.9815
37.178
37.4292
37.6663
37.8518
37.9417
37.8657
37.6697
37.4987
37.3147
37.1444
37.1433
37.3365
37.769
38.2207
37.8383
36.5814
35.057
33.3671
31.1907
28.2645
24.6445
20.8718
17.0591
13.6586
11.2897
11.4545
12.4267
11.2709
12.3423
12.6124
14.1316
14.9642
17.7123
19.5008
21.8692
25.3774
26.9826
)
;
    }
    trailing_edge
    {
        type            calculated;
        value           nonuniform List<scalar> 2(109.535 84.479);
    }
    defaultFaces
    {
        type            empty;
    }
}


// ************************************************************************* //
