/*--------------------------------*- C++ -*----------------------------------*\
  =========                 |
  \\      /  F ield         | OpenFOAM: The Open Source CFD Toolbox
   \\    /   O peration     | Website:  https://openfoam.org
    \\  /    A nd           | Version:  7
     \\/     M anipulation  |
\*---------------------------------------------------------------------------*/
FoamFile
{
    version     2.0;
    format      ascii;
    class       volScalarField;
    location    "42";
    object      k;
}
// * * * * * * * * * * * * * * * * * * * * * * * * * * * * * * * * * * * * * //

dimensions      [0 2 -2 0 0 0 0];

internalField   nonuniform List<scalar> 
12842
(
0.00570269
0.0051237
0.00475701
0.00450265
0.00432977
0.00419915
0.00411333
0.00404772
0.00400223
0.00396792
0.00394439
0.0039206
0.00390517
0.00389926
0.0039039
0.00391283
0.00392823
0.0039443
0.00396382
0.00398456
0.00399968
0.00401821
0.00403305
0.00569697
0.00509841
0.00472385
0.00448971
0.00431996
0.00419858
0.00410748
0.00404908
0.00399976
0.003959
0.00393783
0.00391698
0.00390281
0.00389914
0.00390515
0.00391593
0.00393404
0.0039522
0.00396952
0.00399164
0.00400587
0.00402204
0.0040353
0.00565846
0.00507697
0.00469297
0.00445846
0.00429712
0.00419141
0.00409912
0.0040433
0.00399545
0.00395587
0.00392861
0.00390952
0.00389516
0.00389602
0.00390436
0.00391919
0.00394
0.00395759
0.00397376
0.00399465
0.00400881
0.00402217
0.00403379
0.00563063
0.00501953
0.00463962
0.00442025
0.00426766
0.00417142
0.00409168
0.00403325
0.00399062
0.00394418
0.00391791
0.00390432
0.00389143
0.00389357
0.00390274
0.00392148
0.00394328
0.00396227
0.00397721
0.00399519
0.00400906
0.00401636
0.00402232
0.00559669
0.00498299
0.00459543
0.00436649
0.00422325
0.00413481
0.00406701
0.00401925
0.00397571
0.00393749
0.00391057
0.00389931
0.00388889
0.00389138
0.00390302
0.00392506
0.00394565
0.00396437
0.00397803
0.0039931
0.0040036
0.00400674
0.00401209
0.00555402
0.00494148
0.00457383
0.00434872
0.0042003
0.00411712
0.00405011
0.00400284
0.00396329
0.00392452
0.00390157
0.00389457
0.00388459
0.00388905
0.00390458
0.00392752
0.00394686
0.00396346
0.00397586
0.00398986
0.00399809
0.00400514
0.00400878
0.00551704
0.00487858
0.00451786
0.00430874
0.00416737
0.00408643
0.00402781
0.00398892
0.00394975
0.00391745
0.0038977
0.00389139
0.00388369
0.00388891
0.0039058
0.00392815
0.00394559
0.0039604
0.00397347
0.00398919
0.00399675
0.00400343
0.00401343
0.00548716
0.00485112
0.00449457
0.00429368
0.00414622
0.00406968
0.00400542
0.0039728
0.00393901
0.0039067
0.00389001
0.0038882
0.00388263
0.00388852
0.00390578
0.00392772
0.00394272
0.00395854
0.00397443
0.00398935
0.00399503
0.00400443
0.004025
0.00544109
0.00479332
0.00444778
0.0042627
0.0041257
0.00404592
0.00399239
0.00396353
0.00393031
0.00390171
0.00388637
0.00388356
0.00388289
0.00388898
0.00390682
0.00392568
0.00394221
0.00395714
0.00397162
0.00398811
0.00399716
0.00401921
0.00409317
0.00542012
0.00476396
0.00442367
0.00424358
0.00410679
0.0040327
0.00397787
0.00395576
0.00392443
0.00389632
0.00388393
0.00387919
0.00388177
0.00388935
0.00390547
0.0039253
0.00394142
0.00395787
0.00397261
0.00398866
0.00401161
0.00408141
0.0042014
0.00536446
0.00470989
0.00438216
0.00421805
0.00408772
0.00401725
0.00396223
0.0039523
0.00391852
0.00389359
0.00387863
0.0038788
0.00388222
0.00388912
0.0039039
0.00392534
0.0039397
0.00395731
0.00397307
0.00400792
0.00407199
0.00418958
0.00434734
0.00534446
0.0046805
0.004356
0.00419841
0.00406896
0.00400852
0.00395939
0.00395012
0.00391177
0.00388959
0.00387825
0.00387922
0.00387921
0.00388593
0.00390346
0.00392533
0.00394085
0.00395903
0.00399095
0.00406899
0.00416977
0.00432961
0.0045155
0.00528962
0.00464169
0.00432002
0.00417587
0.00405303
0.0039993
0.00395932
0.00394831
0.00390988
0.00388869
0.00387838
0.00387566
0.00387497
0.00388268
0.00390234
0.00392503
0.00394388
0.00398226
0.00404804
0.00416835
0.00430579
0.00449505
0.00470302
0.00526906
0.0046134
0.00429457
0.00416044
0.00404139
0.00399532
0.00394852
0.00394576
0.00390695
0.00388501
0.00388009
0.00386944
0.00387029
0.0038805
0.00390271
0.00393026
0.00396971
0.00404595
0.00414487
0.00429874
0.004467
0.00467846
0.00489913
0.00521659
0.00458536
0.00426502
0.00414279
0.00403606
0.00398965
0.0039571
0.00394117
0.00390237
0.00388327
0.00387567
0.00386493
0.00386666
0.00387972
0.0039054
0.00396116
0.00403319
0.0041424
0.00427221
0.00445602
0.00464796
0.00487369
0.00509515
0.00519662
0.00455794
0.00424281
0.00413524
0.00403424
0.00398609
0.00395008
0.00393655
0.00389408
0.00387535
0.00386863
0.00386042
0.00386412
0.00388007
0.00392797
0.00402697
0.00412931
0.00427047
0.00442648
0.00462844
0.00484091
0.00507266
0.00529168
0.00514763
0.00453301
0.00422267
0.0041219
0.00403118
0.00397838
0.00395007
0.00392293
0.00388004
0.00386573
0.0038623
0.00385699
0.00386353
0.00389153
0.00398625
0.00412374
0.00425394
0.00441947
0.00459751
0.00481412
0.0050348
0.00527309
0.00547447
0.00512853
0.00450669
0.00420721
0.00411389
0.00403007
0.00397148
0.00394431
0.00391321
0.00387178
0.00385795
0.00385638
0.00385711
0.00387302
0.00393635
0.00407896
0.00424689
0.00440058
0.0045872
0.00478046
0.00500317
0.00522665
0.00546097
0.00565554
0.00508585
0.00448166
0.00419781
0.00409896
0.00402339
0.00395212
0.00392443
0.0038963
0.00386134
0.00385076
0.00385479
0.0038688
0.0039117
0.00401721
0.00420003
0.00439119
0.00456271
0.00476214
0.0049661
0.00519083
0.00541381
0.00564194
0.00581205
0.00507251
0.00445978
0.00419011
0.00408321
0.00401367
0.00393516
0.00390802
0.00388639
0.00385885
0.00385355
0.00386105
0.00391189
0.0039883
0.00412977
0.00434261
0.00454903
0.00473361
0.00494251
0.00515157
0.00537271
0.00558443
0.00580343
0.00596734
0.00503515
0.00443735
0.00418611
0.00406493
0.00398724
0.00390897
0.00388666
0.00387396
0.00385328
0.00384981
0.0038889
0.00398106
0.00409198
0.00426458
0.00449761
0.00471494
0.00490748
0.00511902
0.0053283
0.00554349
0.00575011
0.00595014
0.00609683
0.00502939
0.00442204
0.00417802
0.00403433
0.00395858
0.00389002
0.00387439
0.00386981
0.00386302
0.00388838
0.00395815
0.00408332
0.00422183
0.00441483
0.00465962
0.00488201
0.00507903
0.00529036
0.00549716
0.00570259
0.00589197
0.0060813
0.00621896
0.00499227
0.00440686
0.00416827
0.00401311
0.00392957
0.00387108
0.00386133
0.00386233
0.00387102
0.00392302
0.00403573
0.00419398
0.00436028
0.00456921
0.00482038
0.00504624
0.00524414
0.00545118
0.00565027
0.00584585
0.00602692
0.00619501
0.00631952
0.00498401
0.00439757
0.00415413
0.00397427
0.00389929
0.00385661
0.00385395
0.00386542
0.00391247
0.00402426
0.00417438
0.00434565
0.00452477
0.00473786
0.0049866
0.00520885
0.00540311
0.00560117
0.00579237
0.00597532
0.00613886
0.006297
0.00641374
0.00496
0.00438581
0.00413277
0.00395044
0.00388415
0.00384921
0.00385331
0.00388197
0.00399425
0.00414153
0.00431154
0.0044895
0.00467702
0.00489291
0.00513878
0.00535898
0.0055491
0.00573923
0.00591838
0.0060918
0.00624532
0.00638674
0.00649084
0.00495561
0.00437247
0.00410703
0.00393139
0.00387472
0.00384681
0.00386036
0.00393074
0.00410682
0.00428585
0.00446398
0.00463735
0.00482519
0.00504019
0.00528185
0.00549739
0.00568154
0.00585981
0.00603085
0.00619258
0.00633331
0.00646647
0.00656526
0.0049619
0.00435373
0.00408015
0.00391709
0.00387127
0.00385253
0.00389766
0.0040151
0.00423611
0.00443145
0.00461627
0.00477991
0.00496636
0.00517765
0.00541343
0.00562395
0.00580031
0.00596863
0.00612647
0.00628048
0.00640951
0.00653256
0.00662103
0.00496323
0.00432742
0.00405633
0.00390793
0.00387409
0.00389281
0.00397153
0.00411751
0.0043776
0.00458331
0.00477136
0.00492164
0.00509887
0.00530369
0.00553355
0.0057371
0.00590466
0.00605964
0.00621014
0.006355
0.00647761
0.00659326
0.00667628
0.00496289
0.00430005
0.00403612
0.003906
0.0038978
0.00396738
0.00408148
0.00424531
0.00452176
0.00473559
0.00491569
0.00505009
0.0052217
0.00541813
0.00564179
0.00583888
0.00599687
0.00614238
0.00628236
0.00642057
0.00653212
0.0066417
0.00671905
0.00495933
0.00427322
0.00402218
0.0039165
0.00394939
0.00407239
0.00421102
0.00437959
0.00466705
0.00487764
0.0050545
0.00517482
0.00533407
0.00552074
0.00573879
0.00592775
0.00607569
0.00620844
0.0063419
0.00647395
0.00658187
0.0066862
0.00675682
0.00495074
0.00424832
0.0040124
0.0039491
0.00402
0.00418945
0.00435839
0.00452623
0.00480517
0.00501213
0.00517487
0.00528434
0.00543505
0.0056112
0.00582417
0.00600582
0.00614342
0.00626844
0.0063954
0.00652093
0.00662197
0.00672046
0.00679414
0.00494279
0.00422819
0.00401357
0.0040047
0.00411169
0.00431808
0.00450468
0.00467043
0.00493577
0.00513464
0.0052874
0.0053847
0.00552375
0.00568989
0.00589867
0.00607201
0.00620002
0.00631432
0.00643601
0.00655769
0.00665305
0.00675434
0.00682318
0.00492758
0.00421156
0.00402806
0.00407004
0.00420992
0.0044437
0.00465139
0.00481308
0.00505342
0.0052399
0.0053809
0.00547266
0.00560078
0.00575717
0.0059628
0.00612903
0.00624747
0.00635702
0.00647505
0.00659152
0.00668604
0.0067813
0.00685926
0.00491024
0.0042057
0.00406322
0.00414771
0.00431834
0.00456653
0.00478291
0.00494576
0.0051567
0.00533616
0.00546434
0.00554952
0.00566531
0.00581419
0.0060174
0.00617643
0.00628692
0.00638823
0.00650307
0.00661713
0.00670523
0.00680909
0.00688443
0.00488927
0.0042002
0.00412136
0.00422769
0.00442566
0.00468105
0.00490679
0.00506246
0.00524983
0.00541579
0.00553432
0.00561447
0.00571946
0.00586174
0.00606356
0.00621655
0.00631922
0.00641854
0.0065308
0.00663966
0.00673467
0.00683411
0.00691807
0.00486741
0.00420813
0.00418433
0.00431491
0.0045314
0.00478303
0.00501075
0.00516775
0.00532384
0.00548804
0.00558686
0.0056676
0.00576316
0.00590136
0.00610203
0.00624992
0.00634612
0.00643972
0.00655142
0.00665963
0.00675028
0.00685878
0.006946
0.00484761
0.00422172
0.00426449
0.00440127
0.00463616
0.00487817
0.00510613
0.00525243
0.00539469
0.00554529
0.00563939
0.00571421
0.00579914
0.00593413
0.0061343
0.00627719
0.0063678
0.0064616
0.00657027
0.00667168
0.00677743
0.00688452
0.00697505
0.00482184
0.00425818
0.00433846
0.0044954
0.00473136
0.00495806
0.00518393
0.0053279
0.00545114
0.0055951
0.00567373
0.00574685
0.00582784
0.00596123
0.00616073
0.00630089
0.00638571
0.00647587
0.00658613
0.00668664
0.00679072
0.00690297
0.00700043
0.00480843
0.00430526
0.00442058
0.00458444
0.00482443
0.00503349
0.00525548
0.0053916
0.00550364
0.00563817
0.00570814
0.00577479
0.00585216
0.00598413
0.00618299
0.00631844
0.00640002
0.0064919
0.00659677
0.00669631
0.00681608
0.00692408
0.00702391
0.00479143
0.00436363
0.00449809
0.00467776
0.00491206
0.00510072
0.00531649
0.00544222
0.00555039
0.00566772
0.00572939
0.00579757
0.00587197
0.00600297
0.00620111
0.00633557
0.00641182
0.00650116
0.00660962
0.00670968
0.00682834
0.00694427
0.00705652
0.0047898
0.00443722
0.00457523
0.00476661
0.00499672
0.00516562
0.0053768
0.00549422
0.00559345
0.00569917
0.00574005
0.005811
0.00588936
0.00601977
0.00621624
0.00634679
0.00642121
0.00651309
0.00661678
0.00672138
0.00685323
0.00695971
0.00707888
0.00479596
0.00452231
0.00465572
0.0048554
0.00507939
0.0052263
0.00542741
0.0055354
0.00563143
0.00571729
0.00574973
0.00582184
0.00590432
0.0060334
0.00622883
0.0063589
0.00642906
0.00651901
0.00662698
0.00674153
0.00686545
0.00697031
0.00710665
0.00481377
0.00461562
0.0047358
0.00494162
0.00516039
0.00529311
0.00548173
0.0055742
0.00565741
0.00572733
0.00575853
0.00582696
0.00591673
0.00604633
0.00623864
0.00636744
0.00643583
0.00652958
0.00663813
0.00675491
0.00689092
0.00699148
0.00714456
0.0048455
0.00471945
0.00482089
0.00502924
0.00523947
0.00535609
0.00552927
0.00561235
0.00567645
0.00573372
0.00576832
0.00583449
0.00592867
0.00605655
0.00624748
0.00637573
0.00644142
0.00653528
0.00664589
0.00678412
0.00690499
0.00700648
0.00716381
0.00488051
0.00482202
0.00491057
0.00511425
0.00530958
0.0054159
0.00557098
0.00564219
0.00569786
0.00574103
0.00576932
0.00584043
0.00593702
0.00606668
0.00625314
0.00638293
0.00644719
0.00654612
0.00666496
0.00679918
0.00693201
0.00703077
0.00717561
0.00492644
0.00492554
0.00500923
0.00519552
0.00537322
0.00547663
0.00560641
0.00566193
0.00570275
0.0057491
0.00577177
0.00584502
0.00594725
0.0060743
0.00625916
0.00638898
0.00645174
0.00655439
0.00667623
0.00683146
0.0069542
0.00707159
0.00720315
0.00496927
0.00501642
0.00509743
0.00527159
0.00542481
0.00552009
0.00563463
0.00567918
0.00570978
0.00575624
0.00577841
0.00584726
0.0059529
0.00608224
0.00626217
0.00639582
0.00645653
0.00656438
0.00670085
0.00684809
0.00696475
0.00707345
0.00720178
0.00501727
0.00510211
0.00518039
0.00533713
0.00546889
0.00555298
0.0056553
0.00568984
0.00571775
0.00576258
0.00578587
0.00585053
0.00596123
0.0060876
0.00626641
0.00640093
0.00646042
0.00657852
0.0067159
0.00688074
0.00700225
0.00708167
0.00718858
0.00505959
0.00517354
0.00524796
0.00539587
0.00550783
0.00557518
0.00567002
0.00570076
0.0057296
0.00576757
0.00579146
0.00585364
0.00596582
0.00609403
0.00627019
0.00640603
0.00646367
0.00658892
0.00673933
0.00689051
0.00699356
0.00707257
0.00722054
0.0051068
0.00523736
0.00531217
0.00544479
0.00554174
0.00559738
0.00568367
0.00570942
0.00573947
0.00577474
0.00579685
0.00585928
0.00597147
0.0060978
0.0062719
0.00640897
0.00646606
0.00660031
0.00676082
0.00691038
0.00698954
0.00706917
0.00721544
0.005147
0.00528729
0.00536385
0.00548301
0.00557343
0.00561798
0.00569416
0.00571923
0.00574967
0.00578004
0.00580235
0.0058649
0.0059741
0.00610227
0.00627701
0.00641101
0.00646657
0.0066136
0.00674948
0.00689641
0.00694678
0.0070339
0.00718298
0.00518861
0.00532574
0.00541202
0.00551534
0.00560004
0.0056385
0.00570448
0.00572802
0.00575932
0.00578761
0.00581056
0.00587209
0.00597932
0.00610486
0.00627663
0.00641665
0.00647056
0.00662368
0.00673307
0.0068719
0.00690565
0.006993
0.00716103
0.00522176
0.00535858
0.00545061
0.00554269
0.00562508
0.00565877
0.00571331
0.00573835
0.00577002
0.00579475
0.00581901
0.00587915
0.00598246
0.00610732
0.00627604
0.006417
0.00647158
0.00661783
0.00670397
0.00682145
0.00687523
0.00694156
0.00709464
0.00526022
0.00538934
0.0054858
0.00556927
0.00564601
0.00567659
0.00572304
0.00574995
0.00578116
0.00580395
0.0058297
0.00588741
0.00598798
0.00610899
0.0062752
0.00641736
0.00647557
0.00660713
0.00668009
0.00678278
0.0068527
0.00690373
0.00705061
0.00529443
0.00541845
0.00551521
0.00559284
0.00566429
0.00569362
0.00573331
0.00576328
0.00579185
0.00581294
0.00584003
0.00589502
0.00599194
0.00611051
0.00627118
0.00641084
0.00647266
0.00658683
0.00664655
0.00673064
0.00680795
0.00684885
0.00696575
0.00533493
0.00544864
0.0055422
0.00561567
0.0056795
0.00570923
0.00574549
0.00577779
0.00580253
0.00582237
0.00585134
0.00590284
0.00599752
0.00611118
0.00626879
0.00640458
0.00646841
0.00656688
0.0066179
0.00669081
0.00677046
0.00680412
0.00691251
0.00537197
0.00547481
0.00556551
0.0056338
0.00569201
0.00572372
0.00575749
0.00579015
0.00581127
0.00583083
0.00586053
0.00590889
0.0060008
0.00611086
0.00626409
0.00639632
0.00646124
0.00654466
0.00659086
0.00665331
0.00673572
0.00676398
0.00684644
0.00540939
0.00549882
0.00558581
0.00565103
0.00570412
0.00573712
0.00577005
0.00580232
0.00582024
0.00583933
0.00586957
0.00591445
0.00600392
0.00611061
0.00626014
0.00638864
0.00645298
0.00652362
0.00656677
0.00662139
0.00670464
0.00673
0.00679357
0.00544397
0.00552188
0.00560614
0.00566631
0.00571586
0.00575067
0.00578268
0.00581299
0.00582839
0.00584816
0.00587777
0.00591982
0.00600667
0.00611067
0.00625716
0.00638155
0.00644514
0.00650388
0.00654511
0.00659445
0.00667634
0.00670097
0.00675293
0.00547775
0.00554299
0.00562455
0.00568207
0.00572901
0.00576356
0.00579531
0.00582394
0.0058374
0.0058574
0.00588586
0.00592495
0.00600871
0.00610943
0.00625477
0.00637534
0.00643742
0.00648641
0.00652509
0.00657211
0.00665069
0.00667693
0.00672165
0.00550827
0.00556625
0.00564421
0.00569738
0.00574206
0.00577666
0.00580803
0.00583387
0.00584581
0.00586717
0.0058934
0.00592996
0.00601099
0.00610932
0.00625283
0.00637043
0.00643118
0.00647125
0.00650819
0.00655388
0.00662859
0.00665903
0.00669784
0.00553527
0.0055871
0.00566304
0.005713
0.00575639
0.00578907
0.00581944
0.00584456
0.00585514
0.00587671
0.00590086
0.00593509
0.00601166
0.00610802
0.00625144
0.00636661
0.00642591
0.00645875
0.00649335
0.00653942
0.00661071
0.00664642
0.00668066
0.00556096
0.00561138
0.00568283
0.00572946
0.00577011
0.00580215
0.00583213
0.00585463
0.00586406
0.00588711
0.0059084
0.00594004
0.00601182
0.00610736
0.00625018
0.00636424
0.0064219
0.00644997
0.00648159
0.00652811
0.00659708
0.00663861
0.00666936
0.00558178
0.00563382
0.00570313
0.00574493
0.00578491
0.00581443
0.00584275
0.00586564
0.00587363
0.00589599
0.00591548
0.00594506
0.00601187
0.00610702
0.00624929
0.00636226
0.00641862
0.00644339
0.00647373
0.00651982
0.00658721
0.00663412
0.00666258
0.00560438
0.00565674
0.00572262
0.00576218
0.00579815
0.00582761
0.00585509
0.00587595
0.00588299
0.00590558
0.00592323
0.00595066
0.00601367
0.00610527
0.00624859
0.00636009
0.00641528
0.00643915
0.00646861
0.00651401
0.00658048
0.00663169
0.00665876
0.00562265
0.00568006
0.00574343
0.00577724
0.0058134
0.00583979
0.00586587
0.00588661
0.00589199
0.00591395
0.00593048
0.00595526
0.00601572
0.00610508
0.00624786
0.00635692
0.00641171
0.00643598
0.00646481
0.00651013
0.00657616
0.00663037
0.00665673
0.00564357
0.00569952
0.00576121
0.00579406
0.00582615
0.00585277
0.00587744
0.00589659
0.00590203
0.00592113
0.00593766
0.00596136
0.00601697
0.00610295
0.00624684
0.00635217
0.00640693
0.0064339
0.00646265
0.00650792
0.0065736
0.00662957
0.00665578
0.00566255
0.00572026
0.00578052
0.00580877
0.00584117
0.00586399
0.00588798
0.005906
0.00590885
0.00592915
0.00594536
0.0059663
0.00601939
0.00610263
0.00624451
0.00634549
0.00640105
0.00643206
0.00646103
0.00650664
0.00657181
0.00662907
0.0066552
0.00568197
0.00573844
0.00579638
0.00582403
0.00585423
0.00587684
0.00589948
0.00591559
0.00592039
0.00593469
0.00595217
0.00597253
0.00602183
0.00610337
0.00624063
0.00633702
0.00639293
0.00642963
0.00645936
0.00650557
0.00656982
0.00662848
0.00665444
0.00570451
0.00575627
0.00581463
0.00584052
0.00586841
0.005888
0.00591074
0.00592423
0.00592631
0.00594193
0.00596045
0.0059791
0.00602158
0.00610237
0.00623538
0.00632727
0.00638278
0.00642563
0.00645568
0.0065033
0.00656455
0.00662716
0.00665222
0.00572549
0.00577635
0.00583152
0.00585519
0.00588379
0.00590195
0.0059231
0.00593573
0.00593904
0.00594947
0.00596896
0.00598766
0.00602452
0.00610051
0.00622911
0.00631659
0.00637035
0.0064188
0.00644911
0.00649605
0.00655237
0.00662107
0.00664357
0.00575472
0.00580005
0.00585294
0.00587627
0.00589861
0.00591537
0.0059376
0.00594537
0.00594954
0.0059569
0.00597945
0.00599366
0.00602419
0.00609841
0.00622217
0.00630559
0.00635616
0.00640841
0.00643859
0.00648328
0.0065343
0.00660484
0.00662638
0.00578081
0.00581841
0.00587043
0.00589394
0.00591697
0.00593128
0.00594098
0.00595741
0.0059609
0.00596775
0.00598535
0.00599904
0.00602464
0.00609623
0.00621481
0.00629418
0.00634046
0.00639439
0.00642454
0.00646544
0.00651135
0.00658045
0.00660215
0.00580571
0.00584099
0.00588036
0.00590569
0.00592435
0.0059419
0.00594434
0.00596548
0.00596775
0.00597367
0.00598884
0.00599823
0.00602781
0.00609428
0.00620735
0.00628276
0.00632403
0.00637713
0.0064069
0.00644481
0.00648598
0.00655025
0.006573
0.00581069
0.00585218
0.00588681
0.00591359
0.00592751
0.00595063
0.00595209
0.0059703
0.00597231
0.00597785
0.00599088
0.00599852
0.00602622
0.00609227
0.00619968
0.00627105
0.00630752
0.00635817
0.00638721
0.00642264
0.00645959
0.00651743
0.0065413
0.00581584
0.00585887
0.00589514
0.00591942
0.00593353
0.00594978
0.00595255
0.00597347
0.00597285
0.00597695
0.00599078
0.0059993
0.00602635
0.00609058
0.00619226
0.00625968
0.00629177
0.00633842
0.00636676
0.0064015
0.00643478
0.00648493
0.00650972
0.00582039
0.00586258
0.00589434
0.00592274
0.00593263
0.00595028
0.00595392
0.00597694
0.00597349
0.00597717
0.00599347
0.00599931
0.006027
0.0060887
0.00618466
0.00624843
0.00627694
0.00631993
0.00634679
0.00638157
0.00641235
0.00645547
0.00648032
0.00582302
0.00586756
0.00589519
0.00592654
0.00593744
0.00595266
0.00595757
0.00597532
0.00597575
0.00597792
0.00599408
0.00599996
0.00602774
0.0060872
0.00617749
0.00623838
0.00626414
0.00630268
0.00632862
0.00636457
0.00639324
0.00642965
0.00645451
0.00582193
0.00586409
0.00590169
0.00592402
0.0059347
0.0059529
0.00596054
0.00597489
0.00597342
0.00597767
0.00599498
0.00599972
0.00602481
0.00608543
0.00616997
0.00622898
0.00625246
0.00628773
0.00631251
0.00634906
0.0063773
0.0064084
0.00643244
0.00582894
0.00586551
0.00589873
0.00592555
0.00593586
0.00595263
0.00595772
0.00597779
0.0059742
0.00597807
0.00599222
0.00599973
0.00602484
0.00608403
0.00616307
0.00622152
0.00624346
0.00627446
0.00629923
0.00633684
0.00636452
0.00639129
0.00641465
0.00582432
0.00586707
0.00590036
0.00592685
0.00593864
0.00595249
0.00596126
0.00597524
0.00597414
0.00597747
0.00599197
0.00599951
0.00602407
0.00608237
0.0061557
0.00621434
0.00623541
0.00626359
0.00628787
0.00632619
0.00635409
0.00637736
0.00639979
0.00582267
0.00586094
0.00590048
0.00592222
0.00594074
0.00595222
0.00595956
0.00597402
0.00597496
0.00597843
0.00599271
0.00599959
0.0060241
0.00608112
0.00614919
0.00620916
0.00622925
0.00625434
0.00627821
0.00631671
0.00634524
0.0063667
0.00638817
0.00582242
0.00586099
0.00589962
0.00592182
0.00593641
0.00595316
0.00596193
0.00597376
0.0059745
0.00597771
0.00598943
0.00600001
0.00602579
0.00607941
0.00614201
0.00620302
0.00622385
0.00624632
0.00626962
0.00630808
0.00633808
0.00635809
0.00637861
0.00582496
0.00586364
0.00589834
0.00592309
0.00593601
0.00595269
0.00596205
0.00597254
0.00597425
0.00597664
0.00598933
0.00600047
0.00602541
0.00607824
0.00613605
0.00619873
0.00621874
0.00623993
0.00626221
0.00629959
0.00633045
0.00635062
0.00637117
0.00581682
0.00585669
0.00589666
0.00591739
0.00593626
0.00595263
0.00596022
0.00597185
0.00597709
0.00597686
0.00598864
0.00599778
0.00602413
0.00607615
0.00612916
0.00619238
0.00621335
0.00623347
0.00625496
0.00629114
0.00632377
0.00634378
0.00636422
0.00581611
0.00586258
0.00589474
0.00591719
0.005935
0.0059541
0.00596094
0.00597228
0.00597348
0.00597595
0.00598854
0.00599818
0.00602271
0.00607477
0.00612395
0.00618805
0.0062089
0.00622862
0.00624894
0.00628315
0.0063166
0.00633772
0.0063576
0.00581566
0.00585641
0.00589263
0.00591833
0.00593319
0.00594901
0.00595601
0.00596748
0.00597776
0.00597957
0.00598797
0.00599846
0.00601993
0.00607223
0.00611748
0.00618097
0.00620333
0.006223
0.00624262
0.00627545
0.00630967
0.00633146
0.00635001
0.00581178
0.00585378
0.00588955
0.00591629
0.00593137
0.0059488
0.00595506
0.0059664
0.00597415
0.00597619
0.00598656
0.00599478
0.00601736
0.00607048
0.00611314
0.00617655
0.00619925
0.00621861
0.0062369
0.00626718
0.00630293
0.0063263
0.00634293
0.00581075
0.00585182
0.00588975
0.00591496
0.00593092
0.00595042
0.00595409
0.00596642
0.00597616
0.0059762
0.00598592
0.00599504
0.00601676
0.00606715
0.00610702
0.00616897
0.00619466
0.00621382
0.00623159
0.00626008
0.00629609
0.00632034
0.00633499
0.00580701
0.00585488
0.00588141
0.005912
0.00592423
0.00595011
0.00595449
0.00596095
0.00597652
0.00597524
0.00598577
0.00599435
0.00601177
0.00606514
0.00610329
0.00616479
0.00619104
0.00620979
0.00622641
0.00625341
0.00628959
0.00631531
0.00632937
0.00580504
0.00585429
0.00588046
0.00590993
0.00592475
0.00594789
0.00594867
0.00596058
0.00597452
0.00597272
0.00597993
0.00599297
0.00601097
0.00606106
0.00609712
0.00615701
0.00618645
0.00620528
0.00622174
0.00624778
0.00628293
0.00630878
0.00632226
0.00580954
0.0058511
0.00588213
0.00590484
0.00592272
0.00594542
0.0059482
0.00596384
0.00597246
0.00597069
0.00597848
0.0059904
0.00601257
0.00605843
0.00609359
0.00615286
0.0061831
0.00620062
0.00621645
0.00624141
0.00627661
0.00630379
0.00631759
0.00580883
0.00584675
0.0058835
0.00590346
0.00592583
0.00594042
0.0059513
0.00596284
0.00596774
0.0059702
0.00597819
0.00598845
0.0060107
0.00605348
0.006087
0.00614442
0.00617547
0.00619635
0.00621166
0.00623525
0.00626863
0.00629618
0.00631054
0.00580345
0.00584234
0.00588091
0.00590006
0.00592468
0.00593739
0.00595128
0.00596312
0.00596398
0.00596407
0.00597216
0.00598333
0.0060077
0.00605076
0.00608352
0.00613986
0.0061711
0.0061912
0.00620748
0.0062295
0.00626309
0.00629188
0.00630689
0.00579912
0.00583381
0.00587647
0.00589855
0.00591999
0.00593597
0.0059479
0.00596027
0.0059603
0.00596328
0.00597305
0.00598046
0.00600305
0.00604511
0.00607636
0.00613
0.00616144
0.00618636
0.00620235
0.00622199
0.00625271
0.00628273
0.0062994
0.00577899
0.00582719
0.005861
0.005902
0.00590979
0.00592729
0.00594312
0.00595552
0.00595266
0.0059663
0.00597064
0.00597686
0.00599696
0.00604182
0.00607277
0.00612511
0.00615653
0.00618236
0.00619955
0.006218
0.00624761
0.00627787
0.00629462
0.00577303
0.0058193
0.00585677
0.0058981
0.00590487
0.00592484
0.00593921
0.00594594
0.00595022
0.00596537
0.00597234
0.00597548
0.00598726
0.0060352
0.00606487
0.0061132
0.00614769
0.00617465
0.00619343
0.00620996
0.00623611
0.006266
0.00628486
0.00576605
0.00581262
0.00584945
0.00588927
0.00589837
0.00592548
0.00592895
0.00593985
0.00595133
0.00596036
0.00596552
0.0059682
0.00598433
0.00602849
0.00605678
0.00610131
0.00613932
0.00616584
0.00618632
0.00620148
0.00622458
0.00625371
0.00627475
0.00576138
0.00579416
0.00584373
0.00587137
0.00589628
0.00591903
0.00592295
0.00593484
0.00594716
0.00595429
0.00595919
0.00596853
0.00598476
0.00601977
0.00604653
0.00608719
0.00612692
0.00615578
0.00617844
0.00619262
0.00621244
0.00624023
0.0062628
0.00576463
0.00578861
0.00584421
0.00586402
0.00588497
0.00590848
0.00591497
0.00592923
0.00593903
0.00594624
0.00595112
0.00596222
0.00597901
0.00601062
0.00603606
0.00607323
0.00611171
0.006145
0.00617123
0.00618542
0.00620315
0.00622828
0.00625143
0.00575285
0.00579017
0.00583384
0.00584557
0.00587393
0.00589576
0.00591111
0.00592049
0.00592871
0.00593451
0.00594493
0.00595628
0.00596962
0.00599753
0.00602281
0.00605658
0.00609077
0.00612839
0.00615894
0.00617479
0.00619214
0.00621374
0.00623629
0.00573135
0.00577868
0.00581771
0.00584651
0.00585884
0.00588568
0.00589999
0.0059066
0.00591857
0.00592485
0.00593805
0.00594781
0.00595956
0.00598532
0.00600924
0.00604091
0.00607019
0.0061071
0.00614051
0.00615923
0.00617724
0.00619578
0.00621612
0.00570082
0.00576207
0.00579934
0.00583234
0.00584914
0.00587412
0.00588327
0.00589547
0.00590909
0.00591885
0.00592805
0.00593711
0.00594792
0.00597163
0.00599282
0.00602106
0.00604514
0.0060801
0.00611386
0.00613446
0.00615329
0.00616936
0.00618825
0.00566014
0.00574463
0.00577852
0.00581487
0.00583912
0.00585812
0.00586606
0.00588485
0.00589534
0.00590344
0.00591338
0.00592269
0.00593489
0.00595741
0.00597559
0.00600238
0.00602266
0.0060511
0.00608304
0.00610426
0.00612318
0.00613637
0.00615186
0.00564613
0.00572372
0.00575791
0.00579354
0.00582222
0.00583563
0.00584937
0.00586965
0.00587778
0.00588343
0.00589602
0.00590613
0.00591793
0.00593912
0.00595439
0.00597753
0.00599554
0.00601995
0.00604795
0.00606886
0.00608862
0.00610119
0.00611546
0.00564816
0.00569543
0.00573853
0.00577045
0.00580238
0.00581295
0.00583037
0.00585189
0.00585825
0.00586324
0.00587528
0.00588617
0.00589935
0.00591782
0.005931
0.00595246
0.00596865
0.00598721
0.00601125
0.00602866
0.00604713
0.00605828
0.00607034
0.00562092
0.00565904
0.00570973
0.00574061
0.00577561
0.00578485
0.00580286
0.0058263
0.0058341
0.00584057
0.00585373
0.00586353
0.00587526
0.0058919
0.00590327
0.00592143
0.00593786
0.00595331
0.00597363
0.00598939
0.00600636
0.00601735
0.00602967
0.00559255
0.0056213
0.00567531
0.00570775
0.00574335
0.00575587
0.0057722
0.00579699
0.0058062
0.00581481
0.00582484
0.00583553
0.00584862
0.00586191
0.00587148
0.00588755
0.00590353
0.00591647
0.00593357
0.00594563
0.00596004
0.00596821
0.00597907
0.00552014
0.00557881
0.00562654
0.00566644
0.00570095
0.00571754
0.00573279
0.00575974
0.00577207
0.00578185
0.00579302
0.00580227
0.00581356
0.0058274
0.0058359
0.00584863
0.00586506
0.0058773
0.00589249
0.00590381
0.00591747
0.00592504
0.00593501
0.00546607
0.00553224
0.00557238
0.00562248
0.00565384
0.00567673
0.00569161
0.00571914
0.00573326
0.00574512
0.00575251
0.00576262
0.00577422
0.00578559
0.0057945
0.00580512
0.00581974
0.00583116
0.00584596
0.00585376
0.005865
0.00587086
0.00588069
0.00536627
0.00547517
0.0055135
0.00557032
0.00559789
0.00562445
0.00564068
0.00567008
0.0056852
0.00569841
0.00570938
0.005717
0.00572673
0.0057384
0.00574847
0.00575799
0.00577191
0.00578128
0.00579495
0.00580441
0.00581528
0.00581984
0.00582741
0.00530074
0.00541066
0.00545577
0.00551601
0.00554014
0.00557147
0.00558829
0.00561556
0.00563067
0.00564618
0.00565572
0.00566611
0.00567418
0.00568421
0.00569421
0.00570424
0.00571827
0.00572799
0.00573869
0.0057441
0.00575229
0.00575652
0.00576411
0.00521375
0.00533724
0.00538997
0.00544966
0.00547223
0.00550427
0.00552414
0.00554945
0.00556301
0.00557962
0.00559415
0.00560375
0.00561194
0.00562083
0.00563114
0.00563763
0.00564958
0.00565835
0.00567112
0.00567915
0.00568824
0.00569196
0.00569822
0.00509605
0.00525734
0.00531972
0.00537875
0.00540146
0.00543635
0.00545656
0.00547808
0.00549023
0.00550577
0.00552015
0.00553313
0.00554217
0.00555015
0.00556306
0.00557147
0.00558147
0.00558663
0.00559342
0.00559763
0.00560498
0.00560945
0.00561847
0.00509105
0.00516882
0.00523359
0.00528962
0.00531514
0.00534581
0.00537002
0.00539053
0.00540133
0.00541691
0.00543165
0.00544402
0.00545205
0.00545966
0.00546856
0.00547636
0.00548806
0.0054963
0.00550571
0.00551033
0.00551678
0.00552063
0.0055293
0.00502598
0.00507257
0.00513924
0.0051936
0.00522298
0.00525454
0.00527736
0.00529766
0.00530863
0.00532244
0.00533643
0.00535052
0.00536308
0.00537016
0.00538321
0.00538867
0.00539565
0.00540022
0.00540886
0.00541454
0.00542527
0.00543076
0.00544085
0.00492874
0.00496111
0.00502506
0.00507384
0.00510629
0.00513271
0.00515779
0.00517888
0.00519256
0.00520704
0.00521802
0.00522691
0.00523805
0.00524822
0.00525948
0.0052719
0.00528383
0.00528938
0.00529487
0.00529688
0.00530119
0.00530392