/*--------------------------------*- C++ -*----------------------------------*\
  =========                 |
  \\      /  F ield         | OpenFOAM: The Open Source CFD Toolbox
   \\    /   O peration     | Website:  https://openfoam.org
    \\  /    A nd           | Version:  7
     \\/     M anipulation  |
\*---------------------------------------------------------------------------*/
FoamFile
{
    version     2.0;
    format      ascii;
    class       volScalarField;
    location    "42";
    object      nut;
}
// * * * * * * * * * * * * * * * * * * * * * * * * * * * * * * * * * * * * * //

dimensions      [0 2 -1 0 0 0 0];

internalField   nonuniform List<scalar> 
12842
(
0.0018109
0.00179363
0.00178612
0.0017771
0.00177147
0.00176341
0.00175921
0.00175773
0.00175483
0.0017565
0.00175505
0.00175453
0.00175207
0.00175473
0.0017572
0.000975957
0.000583422
0.000392715
0.000284747
0.000217322
0.000172788
0.000142996
0.00012245
0.00181191
0.00179616
0.0017792
0.00177562
0.00177205
0.00176917
0.00176284
0.00176387
0.00175706
0.00175378
0.00175264
0.00175367
0.00175192
0.00175523
0.00175776
0.00092329
0.000554454
0.000375057
0.000273137
0.00020968
0.000167604
0.000139599
0.000119983
0.00180585
0.00179936
0.00178426
0.00177673
0.00177087
0.00177259
0.00176516
0.00176631
0.00176113
0.00175557
0.00175035
0.00175157
0.00174933
0.00175425
0.00175758
0.000905962
0.000547386
0.000371584
0.000271152
0.000208453
0.00016676
0.000139184
0.000119281
0.00180816
0.00179124
0.0017788
0.00177378
0.00177166
0.0017733
0.001769
0.00176757
0.00176584
0.00175853
0.0017511
0.00175247
0.00174966
0.00175417
0.00168063
0.000872896
0.000531
0.00036232
0.000265286
0.000204513
0.00016405
0.000137444
0.000117599
0.00180814
0.00178948
0.00177421
0.00176665
0.00176366
0.00176892
0.00176574
0.00176486
0.00176201
0.00175821
0.00175339
0.00175412
0.00175089
0.00175374
0.00160164
0.000837813
0.000512609
0.000351424
0.000258254
0.000199762
0.000160616
0.000135229
0.000115706
0.00180749
0.0017966
0.00177872
0.00176765
0.00176122
0.00176605
0.00176718
0.00176311
0.00176119
0.00175635
0.00175195
0.00175438
0.00175031
0.00175337
0.0015392
0.000808947
0.000496912
0.000341778
0.000251927
0.000195491
0.000157458
0.000133392
0.000114039
0.0018036
0.00178847
0.00177747
0.00177032
0.00175936
0.00176212
0.00176162
0.00176201
0.0017592
0.00175701
0.00175401
0.00175433
0.00175135
0.00175344
0.0015069
0.000792599
0.00048733
0.000335485
0.000247644
0.000192566
0.000155162
0.00013189
0.00011275
0.00180604
0.00179067
0.00177647
0.00177129
0.00175769
0.00176018
0.0017595
0.00175836
0.00175687
0.00175373
0.00175259
0.00175408
0.00175224
0.00175409
0.00147638
0.000775304
0.00047603
0.000327908
0.000242519
0.000188845
0.000152194
0.000129869
0.000111168
0.00180172
0.00178696
0.00177501
0.00177312
0.00175758
0.00175751
0.0017574
0.00175897
0.00175747
0.00175395
0.00175264
0.00175311
0.00175408
0.00175588
0.00145602
0.000762719
0.000468014
0.000322317
0.00023848
0.000186037
0.000150066
0.000128803
0.000111625
0.00180363
0.00178748
0.00177276
0.00177236
0.00175771
0.0017575
0.00175625
0.00175773
0.00175663
0.00175261
0.00175238
0.00175263
0.00175547
0.00175799
0.00144514
0.000757714
0.000464836
0.000320382
0.000237058
0.000185012
0.000149601
0.000130121
0.000113849
0.00180159
0.00178374
0.00177098
0.00177293
0.00175847
0.0017578
0.00175257
0.00175946
0.00175701
0.00175295
0.00175141
0.00175412
0.00175781
0.00175993
0.00142077
0.000746038
0.000457977
0.000316135
0.00023417
0.000183822
0.000150131
0.000132224
0.000116595
0.00180124
0.00178529
0.00176667
0.00177121
0.00176009
0.00175927
0.00175467
0.00176083
0.0017563
0.00175297
0.00175309
0.00175639
0.00175846
0.00176024
0.00139353
0.000732653
0.000450838
0.000311658
0.000231902
0.000184204
0.000151807
0.000135071
0.000119744
0.00180001
0.00178429
0.0017645
0.00177178
0.00176215
0.00176082
0.00175743
0.00176373
0.00175822
0.00175496
0.00175525
0.00175723
0.00175849
0.00176012
0.0013674
0.000721701
0.000445641
0.000309347
0.000232021
0.000186321
0.000154856
0.000138623
0.000123378
0.0017991
0.001786
0.00175969
0.00177268
0.00176566
0.00176235
0.00175426
0.00176537
0.00176048
0.00175671
0.00175902
0.0017566
0.0017579
0.00175967
0.00135208
0.000717577
0.000444842
0.000310645
0.00023461
0.000189857
0.000158832
0.000142678
0.000127284
0.00179692
0.00178654
0.00175844
0.00177463
0.00176941
0.00176268
0.00176102
0.00176874
0.00176176
0.00175945
0.00175974
0.00175677
0.00175749
0.0017586
0.00135256
0.000721512
0.000449068
0.000314808
0.000238907
0.000194555
0.000163509
0.000147036
0.000131286
0.00179554
0.0017864
0.00175558
0.00177911
0.00177256
0.00176246
0.00176033
0.00176991
0.00176139
0.00175963
0.00175947
0.00175652
0.00175613
0.00174872
0.00136794
0.000734244
0.000457429
0.000321276
0.000244676
0.000199838
0.000168663
0.00015151
0.0001355
0.00179306
0.00178589
0.00175671
0.00177978
0.0017737
0.00176117
0.00176588
0.00176981
0.00175878
0.00175871
0.00175897
0.00175541
0.00174927
0.00172719
0.0013996
0.000753392
0.000468779
0.000329366
0.000251315
0.000205773
0.000174049
0.000156174
0.000139727
0.00179113
0.0017839
0.00175794
0.00178191
0.00177539
0.00175976
0.00176706
0.00176906
0.00175807
0.00175793
0.00175821
0.00175319
0.00173206
0.00170628
0.00144514
0.000777932
0.00048262
0.000338844
0.000258856
0.000212084
0.000179783
0.000160825
0.000144482
0.00178972
0.00178146
0.00176064
0.00177881
0.00177428
0.00175509
0.00176576
0.00176676
0.00175684
0.00175691
0.0017576
0.00174596
0.00171267
0.0016903
0.00150188
0.000806118
0.000498113
0.00034918
0.000266942
0.000218858
0.000186022
0.000165895
0.000149385
0.00178889
0.0017785
0.00176519
0.00177458
0.00177263
0.00175049
0.00176321
0.00176406
0.00175372
0.00175578
0.00175158
0.00173663
0.00169835
0.00168185
0.00156632
0.000836988
0.000514965
0.00036043
0.000275764
0.000226126
0.000192595
0.000171307
0.000155205
0.00178863
0.00177586
0.00176829
0.0017696
0.00176201
0.00174626
0.00175971
0.00176178
0.00175302
0.00175028
0.00174673
0.0017277
0.0016889
0.00167911
0.00163553
0.000869148
0.000532502
0.000372138
0.000285041
0.000233909
0.000200109
0.000177489
0.000161441
0.0017897
0.00177011
0.00177058
0.00175915
0.0017515
0.00174217
0.00175671
0.00175806
0.00174571
0.00174271
0.00173609
0.00171957
0.00168539
0.0016829
0.00170617
0.000902074
0.000550802
0.000384553
0.000295129
0.00024246
0.0002081
0.000184698
0.000168627
0.00178866
0.00177253
0.00177178
0.00175294
0.00174371
0.00173894
0.00175463
0.00175274
0.00173632
0.00173364
0.0017288
0.0017136
0.00168633
0.00168942
0.00171599
0.000935135
0.000569373
0.000397461
0.000305752
0.000251703
0.00021725
0.000193185
0.000176623
0.00178932
0.00176666
0.0017696
0.00174329
0.0017351
0.00173695
0.00175061
0.00174167
0.00172095
0.00172761
0.00172157
0.00170955
0.00169046
0.00170021
0.00172841
0.000965403
0.000587086
0.000410163
0.000316811
0.000261663
0.000226888
0.000203046
0.000185887
0.00178698
0.00176202
0.00176586
0.00173502
0.00173096
0.00173467
0.00174693
0.0017179
0.00171064
0.00172325
0.0017168
0.00170748
0.00169728
0.00171151
0.00174084
0.000992697
0.0006039
0.000423079
0.00032833
0.000272487
0.000237728
0.00021402
0.000196278
0.00179066
0.00175827
0.00176026
0.00172986
0.00172719
0.00173282
0.00173315
0.001697
0.00170598
0.00172714
0.00171813
0.00170968
0.00170427
0.00172362
0.00175379
0.00101912
0.000621301
0.000436593
0.00034083
0.000284295
0.000249338
0.00022598
0.000207859
0.00179854
0.00175539
0.00175573
0.00172266
0.00172184
0.00172581
0.00171679
0.00168147
0.00170397
0.00172629
0.00171871
0.00171053
0.00171399
0.00173567
0.0017664
0.00104607
0.00063906
0.000450789
0.000353781
0.000296758
0.000261565
0.000238473
0.000219734
0.00180347
0.0017525
0.00175038
0.00171808
0.00171155
0.00171603
0.00170398
0.00167203
0.00170571
0.00172987
0.00172557
0.00171843
0.00172312
0.00174773
0.0017789
0.00107231
0.000657134
0.000465112
0.00036707
0.000309538
0.00027428
0.000251488
0.000232303
0.00180769
0.0017496
0.00174665
0.00171133
0.00169676
0.00170918
0.00169832
0.00166933
0.00170803
0.00173364
0.00173035
0.00172306
0.00173483
0.00175938
0.00179073
0.00109791
0.000674806
0.000479686
0.000380585
0.000322657
0.000287064
0.000264488
0.000244745
0.00180991
0.00174742
0.00174246
0.00170458
0.00169016
0.00170674
0.00169679
0.00167181
0.00171348
0.00173857
0.00173919
0.00173406
0.00174563
0.00177088
0.00180209
0.00112263
0.0006927
0.000494247
0.000394017
0.000335775
0.000300032
0.000277512
0.000257299
0.0018106
0.00174441
0.00173739
0.00170067
0.00168405
0.00170608
0.00170269
0.00167943
0.00171933
0.00174441
0.00174657
0.00174357
0.0017575
0.00178177
0.00181249
0.00114698
0.000710012
0.00050885
0.000407618
0.000348885
0.000312879
0.000290217
0.000269936
0.0018124
0.00174187
0.00173196
0.00170048
0.00168748
0.00170997
0.00170952
0.00169079
0.00172647
0.00175211
0.00175576
0.00175419
0.00176877
0.00179207
0.001822
0.00117077
0.00072757
0.000523333
0.000420831
0.000361858
0.000325492
0.000302835
0.000282349
0.00181183
0.00173921
0.00172174
0.00169968
0.00169058
0.00171513
0.00172166
0.00170417
0.00173444
0.0017592
0.00176469
0.0017665
0.00177941
0.00180148
0.00183035
0.00119453
0.00074465
0.000537867
0.000434226
0.000374658
0.000338279
0.00031503
0.0002951
0.00181229
0.00173428
0.00171739
0.00170129
0.00169977
0.00172097
0.00173155
0.00171974
0.00174198
0.00176814
0.00177432
0.00177712
0.00178936
0.00180982
0.00183756
0.00121811
0.000761943
0.0005521
0.000447199
0.000387324
0.00035038
0.000327012
0.000307281
0.00181157
0.00172928
0.00172024
0.00170253
0.00170758
0.00172813
0.00174381
0.0017333
0.00175015
0.00177694
0.00178204
0.00178705
0.00179746
0.00181707
0.0018436
0.00124201
0.000779032
0.00056653
0.000460176
0.000399446
0.000362759
0.000338351
0.000319604
0.00181191
0.0017219
0.0017234
0.00170771
0.00171806
0.00173329
0.00175326
0.00174747
0.00175813
0.0017849
0.00178855
0.0017952
0.00180446
0.00182307
0.00184851
0.00126604
0.000796118
0.0005804
0.000472817
0.000411608
0.000374164
0.000349213
0.000331325
0.0018117
0.00171875
0.00173392
0.00171299
0.00172834
0.00174008
0.00176339
0.00175777
0.00176563
0.00179129
0.00179536
0.00180239
0.00181012
0.00182793
0.00185248
0.00129071
0.000813523
0.000594682
0.000485198
0.000422733
0.000385631
0.00035928
0.000342616
0.00181055
0.00171688
0.00173983
0.00172341
0.00173903
0.00174479
0.00177078
0.00176733
0.00177338
0.00179521
0.00179832
0.00180653
0.00181294
0.00183177
0.00185555
0.00131585
0.000830577
0.000608311
0.000497299
0.000433895
0.000395858
0.000368331
0.000353274
0.00180785
0.00172338
0.00174581
0.00173262
0.00174946
0.00175013
0.00177851
0.00177476
0.00177925
0.00179827
0.00180576
0.00181106
0.00181676
0.0018348
0.00185798
0.00134196
0.000848513
0.000622487
0.00050882
0.000444147
0.000406121
0.000376746
0.000363378
0.00180611
0.00172507
0.00174798
0.00174328
0.00175993
0.00175526
0.00178485
0.00178
0.00178555
0.00180284
0.00180713
0.00181488
0.0018214
0.001837
0.00185983
0.00136905
0.000866208
0.000636229
0.000520166
0.000454087
0.000414957
0.000384139
0.000373368
0.00180287
0.00173618
0.00174469
0.00175251
0.00176853
0.00175875
0.00178933
0.00178636
0.00179064
0.00180805
0.00180819
0.00181628
0.00182535
0.00183906
0.00186122
0.00139743
0.000885276
0.000650353
0.000531002
0.000463763
0.000424024
0.000390953
0.000381522
0.0017996
0.00174142
0.00174095
0.00175928
0.00177665
0.00176359
0.00179317
0.00179016
0.00179528
0.00180959
0.00181086
0.00181928
0.00182786
0.00184018
0.00186233
0.00142757
0.000904473
0.000664468
0.000541713
0.000473329
0.00043175
0.000396118
0.000388855
0.00179189
0.00175204
0.001736
0.00176421
0.00178278
0.00176858
0.00179757
0.00179351
0.00179685
0.00181041
0.00181136
0.00182016
0.00182985
0.00184183
0.00186298
0.00145948
0.000925381
0.000679441
0.000552522
0.000482254
0.000439632
0.000401511
0.000396078
0.00178726
0.00175869
0.0017329
0.00176821
0.00178998
0.0017757
0.00180204
0.00179965
0.00180225
0.00181029
0.00181077
0.00182066
0.0018313
0.00184249
0.00186367
0.00149379
0.000947316
0.00069457
0.000563264
0.000492991
0.000447426
0.000405217
0.000402041
0.00178001
0.00176759
0.00173228
0.00177089
0.00179408
0.00178129
0.00180575
0.00180096
0.00180785
0.00181059
0.00181089
0.00182009
0.00183324
0.00184347
0.0018638
0.00153124
0.00097135
0.000711706
0.000575446
0.000501611
0.00045422
0.000408768
0.000405795
0.00177757
0.00177415
0.00173939
0.0017747
0.00179872
0.00178753
0.00180729
0.00180255
0.00180666
0.00181103
0.0018109
0.00182154
0.00183429
0.00184392
0.00186418
0.00157202
0.000997921
0.000729545
0.000588126
0.000512887
0.00046176
0.000413366
0.000409666
0.00177536
0.00178172
0.00174724
0.00177823
0.00179943
0.00179085
0.00180907
0.00180512
0.00180709
0.00181006
0.00181124
0.00182187
0.00183598
0.00184431
0.00186412
0.00161701
0.00102691
0.000750354
0.000603546
0.000522798
0.000468444
0.000415967
0.00041216
0.00177627
0.00178609
0.00175676
0.00178117
0.00180083
0.00179353
0.00180924
0.00180723
0.00180728
0.00181169
0.00181167
0.00182163
0.0018372
0.00184456
0.00186438
0.00166714
0.00106007
0.00077384
0.000620133
0.000534547
0.000477884
0.00042045
0.000414125
0.00177726
0.00179132
0.00176442
0.00178588
0.00180066
0.0017953
0.00181032
0.00180804
0.00180799
0.00181263
0.00181183
0.00182202
0.00183719
0.00184606
0.00186498
0.00171916
0.00109399
0.000799212
0.000639525
0.000546096
0.000485394
0.000427205
0.000419753
0.00178039
0.0017922
0.00177594
0.00179163
0.00180207
0.00179747
0.00181021
0.00180827
0.00180817
0.00181277
0.00181205
0.00182279
0.00183729
0.00184663
0.00186488
0.00176899
0.00112902
0.000826634
0.000660306
0.000560473
0.000495035
0.000435536
0.000422686
0.00178174
0.0017947
0.00178496
0.00179602
0.0018037
0.00179916
0.00181071
0.00180799
0.00180877
0.00181138
0.0018117
0.00182234
0.00183698
0.0018471
0.00186615
0.00181571
0.00115866
0.00084961
0.000674432
0.000570463
0.000501922
0.00044249
0.000424832
0.00178634
0.00179553
0.00179259
0.00179851
0.00180579
0.00180021
0.00181016
0.00180736
0.00180956
0.00181089
0.0018119
0.0018233
0.00183713
0.00184749
0.00186564
0.00185295
0.00118599
0.000869238
0.00068644
0.000578372
0.000508378
0.000449268
0.000427735
0.00178693
0.00179791
0.00179629
0.00179948
0.00180765
0.00180123
0.00180999
0.00180696
0.0018104
0.00181032
0.00181207
0.00182324
0.00183686
0.00184712
0.00186544
0.00185854
0.00120295
0.000880873
0.000694825
0.000582348
0.000514401
0.000454451
0.000428331
0.00179119
0.00180035
0.00179918
0.00180063
0.00180911
0.001802
0.00180931
0.00180677
0.0018111
0.00181036
0.00181259
0.00182396
0.00183664
0.00184701
0.00186497
0.00185856
0.00121774
0.000886951
0.000701584
0.000585299
0.000519117
0.000458364
0.000429295
0.0017926
0.00180223
0.00180086
0.00180176
0.00180975
0.00180302
0.00180938
0.00180745
0.00181151
0.00181052
0.00181339
0.00182384
0.00183613
0.00184649
0.00186403
0.00185903
0.00122993
0.000893354
0.000708519
0.000589038
0.000524506
0.000463586
0.000430386
0.00179636
0.00180389
0.00180241
0.00180366
0.00180992
0.00180433
0.0018095
0.00180815
0.00181149
0.00181081
0.00181416
0.00182396
0.0018356
0.00184622
0.00186322
0.00185851
0.00122241
0.000884588
0.000700681
0.000581381
0.000518553
0.00045934
0.000425082
0.0017989
0.00180441
0.00180367
0.00180496
0.00180962
0.00180563
0.00180995
0.00180867
0.0018113
0.00181117
0.00181468
0.00182361
0.00183497
0.00184598
0.00186255
0.00185855
0.00122994
0.000887055
0.0007013
0.000581265
0.000517687
0.000462019
0.000423281
0.00180234
0.00180468
0.00180414
0.00180617
0.00180932
0.00180686
0.00181017
0.00180896
0.00181104
0.00181151
0.00181492
0.00182321
0.00183439
0.00184542
0.00186207
0.00185854
0.00126152
0.000912502
0.000722192
0.0006001
0.000534141
0.000479896
0.000436506
0.0018052
0.00180517
0.00180493
0.00180688
0.00180871
0.00180789
0.00181046
0.00180882
0.00181077
0.00181191
0.001815
0.00182272
0.00183381
0.00184555
0.00186182
0.00185849
0.00128374
0.000928876
0.000735236
0.000612109
0.000544136
0.000492089
0.000445956
0.0018079
0.0018051
0.00180469
0.00180744
0.00180829
0.00180869
0.0018104
0.00180882
0.00181071
0.00181243
0.0018149
0.00182211
0.00183322
0.00184505
0.0018616
0.00185855
0.00130148
0.000941125
0.000745089
0.000621412
0.000551663
0.000501607
0.000454686
0.00181022
0.00180634
0.00180546
0.00180772
0.00180752
0.00180936
0.00181058
0.00180844
0.00181058
0.00181294
0.00181487
0.00182153
0.00183273
0.00184494
0.00186147
0.00185878
0.00132496
0.000957046
0.0007578
0.000633028
0.000560716
0.000512247
0.000465107
0.00181136
0.00180672
0.00180546
0.00180817
0.00180723
0.00180973
0.00181035
0.00180855
0.00181083
0.00181355
0.00181477
0.00182088
0.0018319
0.00184411
0.00186141
0.00185906
0.0013499
0.00097503
0.000772943
0.00064732
0.00057214
0.000524387
0.000477298
0.00181215
0.00180788
0.00180668
0.00180842
0.00180644
0.00181042
0.00181074
0.00180861
0.00181079
0.00181427
0.00181505
0.00182039
0.00183093
0.00184407
0.00186137
0.00185956
0.00137964
0.000996654
0.000791082
0.000664468
0.000586114
0.000538492
0.000491084
0.00181198
0.00180896
0.00180763
0.00180883
0.00180668
0.00181062
0.00181081
0.00180902
0.00181117
0.00181476
0.00181512
0.00181968
0.00182994
0.00184343
0.0018615
0.00185999
0.00141443
0.00102197
0.000812287
0.000684501
0.00060304
0.000554891
0.000506964
0.00181161
0.001809
0.00180917
0.00180955
0.00180619
0.00181148
0.00181139
0.00180979
0.00181122
0.00181542
0.00181578
0.00181954
0.00182953
0.00184222
0.00186175
0.00186017
0.00145442
0.00105138
0.000836727
0.000707658
0.000623313
0.000574429
0.000525573
0.00181104
0.00181025
0.00181085
0.00180955
0.00180727
0.00181167
0.00181196
0.0018104
0.0018114
0.00181571
0.00181604
0.00181884
0.00182922
0.0018419
0.00186209
0.00185994
0.00149931
0.00108485
0.000864267
0.000733776
0.000646981
0.000596901
0.000546933
0.00181046
0.00180928
0.00181201
0.00181056
0.00180742
0.00181257
0.00181247
0.00181152
0.00181171
0.00181586
0.00181662
0.00181875
0.00182848
0.00184069
0.00186246
0.00185924
0.00154852
0.00112218
0.000894886
0.000762633
0.000674217
0.000623232
0.000571823
0.00181002
0.00180988
0.00181378
0.00181038
0.00180904
0.00181247
0.00181285
0.00181194
0.00181137
0.00181577
0.00181697
0.00181829
0.00182797
0.00184078
0.00186254
0.00185813
0.00160172
0.00116306
0.000928531
0.000794008
0.000704044
0.000653259
0.000600222
0.00180855
0.00180844
0.00181358
0.0018099
0.00180962
0.00181325
0.00181323
0.00181277
0.00181183
0.00181514
0.00181671
0.00181769
0.00182746
0.00184091
0.0018616
0.00185673
0.00165888
0.00120738
0.000965316
0.000827886
0.00073739
0.000686326
0.000633145
0.00180816
0.00180782
0.00181474
0.00181034
0.00181051
0.00181267
0.00181256
0.00181248
0.00181106
0.00181451
0.00181701
0.00181762
0.00182488
0.00184006
0.00185994
0.00185528
0.00172058
0.00125541
0.00100515
0.000865106
0.000774179
0.000723774
0.000671003
0.00180582
0.00180657
0.00181364
0.00180839
0.00181159
0.00181345
0.00181287
0.00181328
0.00181145
0.00181369
0.0018163
0.00181727
0.00182423
0.00183905
0.00185836
0.00185388
0.00178784
0.00130771
0.00104815
0.000905781
0.000813649
0.000765518
0.000713041
0.0018065
0.00180647
0.00181328
0.00180957
0.00181085
0.0018127
0.00181361
0.00181246
0.00181174
0.00181289
0.00181695
0.00181712
0.00182303
0.00183816
0.00185675
0.00185261
0.00182658
0.00136523
0.00109507
0.000949747
0.000855745
0.000809606
0.000758389
0.00180581
0.00180557
0.0018143
0.00181172
0.00181306
0.00181344
0.00181087
0.00181357
0.001812
0.00181318
0.00181647
0.00181754
0.00182323
0.00183754
0.00185511
0.00185141
0.00182637
0.00142916
0.00114709
0.000997344
0.000901401
0.00085604
0.000807668
0.00180839
0.00180789
0.0018131
0.00181323
0.00181362
0.00181408
0.00181062
0.0018141
0.00181404
0.00181466
0.00181752
0.00181647
0.00182403
0.00183699
0.00185338
0.00185024
0.00182611
0.00150104
0.00120565
0.00105029
0.000952242
0.00090641
0.000861754
0.00180706
0.00180774
0.00181321
0.00181348
0.00181299
0.00181491
0.00181246
0.00181566
0.00181493
0.00181551
0.00181768
0.00181587
0.00182325
0.00183598
0.00185165
0.00184901
0.00182599
0.00158261
0.00127256
0.00111033
0.00101007
0.000962505
0.000921864
0.00180844
0.0018101
0.00181408
0.00181517
0.00181382
0.00181285
0.0018124
0.00181646
0.00181372
0.00181481
0.00181735
0.00181648
0.00182325
0.00183611
0.0018499
0.00184776
0.00182604
0.00167606
0.00134989
0.00117967
0.00107706
0.00102634
0.000989578
0.00180755
0.00181106
0.00181427
0.00181573
0.00181305
0.00181331
0.00181195
0.00181714
0.00181416
0.00181478
0.00181798
0.00181622
0.00182339
0.0018355
0.0018481
0.0018465
0.00182635
0.00178385
0.00143981
0.0012604
0.00115537
0.00110022
0.00106671
0.00180924
0.00181198
0.00181352
0.00181631
0.00181382
0.00181399
0.00181284
0.0018161
0.0018148
0.00181494
0.00181743
0.0018165
0.00182361
0.00183469
0.00184636
0.00184539
0.00182699
0.00180089
0.00154496
0.00135517
0.0012472
0.00118649
0.00115548
0.00180918
0.00181078
0.00181516
0.00181442
0.00181383
0.00181296
0.0018134
0.00181512
0.0018134
0.00181415
0.00181713
0.00181661
0.00182273
0.0018349
0.00184461
0.00184446
0.00182783
0.00180371
0.00166806
0.0014663
0.0013548
0.00128777
0.00125831
0.00181154
0.00181088
0.0018141
0.00181508
0.00181402
0.00181353
0.00181346
0.00181664
0.00181407
0.00181496
0.00181682
0.00181652
0.0018222
0.00183458
0.00184295
0.00184388
0.00182904
0.00180655
0.00178129
0.0015972
0.00148084
0.00140687
0.00137796
0.00180918
0.00181162
0.00181559
0.00181591
0.00181463
0.00181297
0.00181453
0.00181615
0.00181402
0.00181471
0.00181682
0.00181727
0.00182273
0.00183429
0.00184132
0.00184344
0.00183035
0.00180983
0.00178682
0.00175037
0.00162831
0.00154701
0.00151754
0.00180853
0.00180941
0.00181526
0.00181429
0.00181649
0.00181394
0.00181362
0.00181598
0.00181414
0.00181501
0.00181706
0.00181678
0.00182275
0.00183406
0.00183987
0.00184338
0.0018317
0.00181292
0.00179178
0.00175744
0.00171918
0.00167643
0.00165408
0.00180849
0.00180967
0.0018137
0.0018144
0.00181515
0.00181438
0.00181392
0.00181536
0.00181502
0.00181481
0.00181591
0.0018177
0.00182324
0.00183348
0.0018384
0.00184317
0.0018331
0.00181609
0.00179642
0.00176372
0.00172949
0.00168974
0.00166891
0.00181012
0.00181049
0.0018147
0.00181495
0.00181449
0.00181384
0.00181506
0.00181601
0.00181488
0.00181478
0.00181591
0.00181789
0.00182292
0.00183418
0.00183718
0.00184328
0.00183401
0.00181892
0.0018004
0.00176893
0.00173878
0.0017018
0.00168267
0.00180806
0.00180707
0.00181401
0.00181243
0.0018159
0.00181345
0.00181451
0.00181593
0.00181599
0.00181485
0.00181671
0.00181748
0.0018235
0.00183372
0.00183586
0.00184298
0.00183486
0.00182153
0.00180411
0.00177383
0.00174797
0.00171339
0.00169538
0.00180785
0.00181018
0.00181452
0.00181329
0.00181547
0.00181541
0.00181437
0.00181608
0.00181491
0.00181428
0.00181647
0.00181779
0.00182307
0.00183313
0.00183497
0.00184299
0.00183542
0.00182371
0.00180722
0.00177801
0.00175603
0.0017244
0.001707
0.00181055
0.00180848
0.00181344
0.00181445
0.00181405
0.00181423
0.00181421
0.00181489
0.00181558
0.00181518
0.00181642
0.00181825
0.00182237
0.00183351
0.00183384
0.00184245
0.00183594
0.00182575
0.00181026
0.00178247
0.00176407
0.00173548
0.00171828
0.00180995
0.00180898
0.00181465
0.00181423
0.00181509
0.00181424
0.00181419
0.00181514
0.00181439
0.00181538
0.00181623
0.00181714
0.00182169
0.00183305
0.00183325
0.00184236
0.00183635
0.00182727
0.00181253
0.0017859
0.00177101
0.00174609
0.00172897
0.00180818
0.00180929
0.00181342
0.00181473
0.00181523
0.00181644
0.00181359
0.0018157
0.00181553
0.00181546
0.00181659
0.00181844
0.00182108
0.00183182
0.00183229
0.00184168
0.00183714
0.00182908
0.00181532
0.00179027
0.00177821
0.00175695
0.00174
0.00180982
0.00181069
0.00181264
0.00181415
0.00181303
0.00181659
0.0018137
0.00181411
0.00181636
0.00181444
0.00181719
0.00181726
0.00181998
0.00183077
0.00183192
0.00184159
0.00183761
0.00183029
0.0018172
0.00179378
0.00178421
0.00176693
0.00175093
0.00180677
0.00181349
0.0018117
0.0018143
0.00181518
0.00181608
0.00181228
0.00181562
0.00181746
0.00181376
0.00181602
0.00181794
0.0018203
0.00182998
0.00183116
0.00184092
0.00183851
0.00183205
0.00182001
0.00179864
0.00179094
0.00177712
0.00176232
0.00181084
0.00181303
0.00181466
0.00181305
0.00181489
0.00181467
0.00181316
0.00181689
0.00181721
0.00181368
0.00181649
0.00181656
0.00182177
0.00183025
0.00183092
0.00184082
0.00183906
0.00183292
0.00182158
0.00180204
0.0017962
0.00178613
0.0017733
0.00180894
0.00181128
0.00181304
0.00181224
0.00181518
0.00181386
0.00181488
0.00181631
0.00181537
0.0018141
0.00181629
0.00181655
0.00182291
0.00183027
0.00183024
0.00184007
0.00183917
0.00183482
0.00182448
0.00180709
0.00180229
0.00179522
0.00178456
0.00180812
0.00181017
0.00181458
0.00181087
0.00181506
0.00181474
0.00181608
0.00181658
0.00181451
0.00181361
0.00181608
0.00181585
0.00182235
0.00183137
0.00183002
0.00183984
0.00183939
0.00183545
0.00182611
0.00181043
0.00180707
0.00180287
0.00179494
0.00180873
0.00181026
0.00181219
0.00181188
0.00181443
0.00181685
0.00181585
0.00181724
0.00181426
0.00181444
0.00181532
0.00181585
0.00182078
0.00183005
0.00182925
0.0018388
0.00183901
0.00183736
0.00182921
0.00181551
0.00181245
0.00181044
0.00180522
0.00180586
0.00181232
0.00180837
0.0018155
0.00181348
0.00181475
0.00181674
0.00181809
0.00181259
0.00181654
0.00181604
0.00181633
0.00181878
0.00182857
0.00182892
0.00183848
0.00183902
0.00183815
0.00183083
0.00181887
0.00181666
0.00181621
0.00181315
0.0018066
0.0018107
0.00180854
0.00181786
0.00181316
0.00181364
0.0018162
0.00181582
0.00181262
0.00181739
0.00181607
0.00181801
0.0018179
0.00182736
0.00182808
0.00183693
0.00183897
0.00183931
0.00183397
0.00182391
0.00182155
0.00182212
0.00182125
0.0018059
0.00180799
0.00180893
0.00181622
0.00181323
0.00181431
0.00181254
0.00181381
0.00181412
0.00181783
0.00181444
0.00181656
0.00181819
0.00182679
0.00182766
0.00183554
0.00183921
0.00184008
0.00183666
0.00182833
0.00182582
0.00182692
0.00182751
0.00180996
0.0018029
0.00181132
0.00181042
0.00181298
0.00181453
0.00181209
0.00181424
0.00181451
0.00181722
0.0018143
0.00181697
0.00182015
0.00182709
0.00182705
0.0018337
0.00183842
0.00184062
0.00183925
0.00183273
0.00183004
0.00183153
0.0018331
0.0018126
0.00180455
0.00181741
0.00181002
0.00181183
0.0018147
0.00181143
0.001815
0.00181452
0.00181505
0.00181436
0.001817
0.00182042
0.00182625
0.00182659
0.00183228
0.00183729
0.00184118
0.00184211
0.00183762
0.00183519
0.00183663
0.0018386
0.00180827
0.0018073
0.00181626
0.00180771
0.00181185
0.00181555
0.00181278
0.00181545
0.00181437
0.00181345
0.00181526
0.00181795
0.0018185
0.00182485
0.00182497
0.00183024
0.00183459
0.00184034
0.00184365
0.00184147
0.00183985
0.00184107
0.00184319
0.00180379
0.00180846
0.00181149
0.00181222
0.0018111
0.00181895
0.00181223
0.001815
0.00181451
0.00181285
0.00181665
0.0018188
0.00181829
0.00182325
0.00182371
0.00182904
0.00183273
0.00183846
0.00184337
0.00184374
0.00184347
0.00184458
0.00184643
0.00179797
0.00180689
0.00180923
0.00181199
0.00181081
0.00181767
0.00181112
0.00181405
0.00181439
0.00181397
0.00181663
0.00181831
0.00181793
0.00182134
0.00182194
0.00182686
0.00182958
0.00183547
0.00184103
0.00184314
0.00184417
0.00184538
0.00184741
0.00179298
0.0018086
0.00180899
0.00181143
0.00181235
0.00181248
0.00181062
0.00181415
0.00181351
0.00181286
0.00181561
0.00181699
0.00181768
0.00182047
0.00182103
0.00182586
0.00182826
0.00183236
0.00183765
0.00184083
0.00184302
0.00184421
0.00184569
0.00179934
0.00181051
0.00180994
0.0018107
0.00181331
0.00180971
0.00181152
0.00181515
0.0018139
0.00181209
0.00181499
0.00181623
0.00181728
0.00181976
0.00181934
0.00182318
0.00182536
0.00182933
0.00183374
0.00183695
0.00183985
0.00184166
0.00184349
0.00180798
0.00181124
0.00181108
0.00181129
0.00181414
0.0018088
0.00181173
0.00181636
0.00181487
0.00181197
0.00181434
0.00181558
0.00181708
0.00181868
0.00181822
0.00182168
0.00182372
0.00182613
0.00182982
0.00183255
0.00183529
0.00183694
0.00183837
0.00181608
0.00181104
0.00180932
0.00181199
0.00181398
0.00180841
0.00181052
0.00181608
0.00181596
0.00181345
0.00181499
0.00181544
0.00181674
0.00181796
0.00181677
0.0018191
0.00182135
0.00182371
0.00182649
0.00182859
0.00183097
0.00183286
0.0018346
0.00181926
0.00180727
0.00180747
0.00181235
0.0018128
0.00180855
0.00180869
0.00181456
0.00181502
0.00181308
0.00181364
0.00181422
0.00181582
0.00181653
0.00181534
0.00181701
0.00181924
0.00182103
0.00182374
0.0018254
0.00182687
0.00182768
0.00182875
0.00180875
0.00180325
0.00180424
0.00181107
0.00181066
0.0018081
0.00180638
0.00181229
0.00181383
0.00181307
0.00181365
0.00181381
0.00181514
0.00181605
0.00181493
0.0018155
0.00181735
0.00181902
0.00182085
0.00182269
0.00182436
0.00182537
0.0018262
0.00179606
0.0018005
0.00180149
0.00180933
0.00180837
0.00180773
0.00180468
0.00180979
0.00181105
0.00181089
0.00181087
0.0018116
0.00181311
0.00181378
0.00181307
0.00181357
0.00181527
0.00181678
0.00181874
0.00181954
0.00182022
0.00182066
0.00182135
0.00177776
0.0017985
0.00180013
0.0018081
0.00180678
0.00180716
0.00180369
0.00180845
0.00180923
0.00181001
0.00181112
0.00181139
0.00181273
0.0018135
0.00181306
0.00181287
0.0018138
0.00181456
0.00181603
0.00181776
0.00181903
0.0018194
0.00181983
0.00177398
0.00179665
0.00180007
0.0018074
0.00180542
0.00180713
0.00180401
0.00180706
0.00180673
0.00180758
0.00180786
0.00180933
0.00181024
0.00181128
0.00181136
0.00181207
0.00181369
0.00181497
0.00181549
0.00181535
0.00181553
0.00181579
0.00181628
0.00176685
0.00179528
0.00180035
0.00180724
0.00180487
0.00180667
0.00180493
0.00180743
0.00180563
0.00180675
0.00180843
0.00180887
0.00180987
0.00180997
0.0018097
0.00180854
0.00180973
0.00181093
0.00181327
0.00181466
0.00181535
0.00181529
0.00181499
0.0017517
0.00179348
0.00180023
0.00180643
0.00180362
0.00180617
0.00180575
0.0018066
0.00180393
0.00180433
0.00180493
0.00180632
0.00180713
0.00180737
0.00180947
0.00180918
0.00180962
0.00180969
0.00180988
0.00181019
0.00181064
0.00181093
0.00181152
0.00177851
0.00179185
0.00179893
0.00180482
0.00180307
0.00180351
0.00180501
0.00180653
0.00180282
0.00180317
0.00180495
0.00180488
0.00180482
0.00180348
0.00180272
0.00180295
0.00180386
0.00180538
0.00180633
0.00180685
0.00180714
0.00180695
0.00180662
0.0017876