/*--------------------------------*- C++ -*----------------------------------*\
  =========                 |
  \\      /  F ield         | OpenFOAM: The Open Source CFD Toolbox
   \\    /   O peration     | Website:  https://openfoam.org
    \\  /    A nd           | Version:  7
     \\/     M anipulation  |
\*---------------------------------------------------------------------------*/
FoamFile
{
    version     2.0;
    format      ascii;
    class       volScalarField;
    location    "42";
    object      omega;
}
// * * * * * * * * * * * * * * * * * * * * * * * * * * * * * * * * * * * * * //

dimensions      [0 0 -1 0 0 0 0];

internalField   nonuniform List<scalar> 
12842
(
3.14908
2.8566
2.66332
2.53371
2.44418
2.38126
2.33817
2.30281
2.2807
2.259
2.24745
2.23455
2.22889
2.22214
2.22166
2.224
2.231
2.24333
2.26841
2.30151
2.3574
2.40675
2.44229
3.14418
2.83851
2.65503
2.52854
2.43783
2.37319
2.33004
2.29557
2.2764
2.25741
2.2468
2.23359
2.22773
2.22144
2.22167
2.22465
2.23279
2.24786
2.27456
2.31235
2.36911
2.42748
2.45467
3.1334
2.82155
2.63021
2.50936
2.42655
2.36456
2.32224
2.28912
2.26869
2.25333
2.24447
2.23201
2.22666
2.2209
2.22145
2.2249
2.23363
2.25049
2.27865
2.31935
2.37884
2.42917
2.45974
3.11401
2.80227
2.60829
2.49199
2.40884
2.35235
2.31298
2.28181
2.2599
2.24288
2.2374
2.22789
2.2241
2.21962
2.22066
2.22506
2.23515
2.25326
2.28293
2.32489
2.39139
2.42444
2.4601
3.09527
2.7846
2.59013
2.47163
2.39459
2.33748
2.30328
2.27738
2.25635
2.23948
2.23029
2.22295
2.22109
2.21891
2.22052
2.22574
2.23708
2.25687
2.28794
2.32847
2.39402
2.42265
2.4569
3.07278
2.75046
2.57141
2.46016
2.38489
2.33126
2.29185
2.27034
2.25034
2.23447
2.22699
2.21991
2.21937
2.21804
2.22007
2.22638
2.23866
2.25934
2.29245
2.3343
2.39001
2.42536
2.45702
3.05891
2.72779
2.54174
2.43388
2.36868
2.31904
2.28643
2.26384
2.2452
2.22962
2.22217
2.21816
2.21754
2.21787
2.22003
2.22675
2.24021
2.26292
2.29526
2.33982
2.38562
2.44042
2.48099
3.03823
2.70911
2.53006
2.42404
2.3589
2.31208
2.27646
2.25938
2.24206
2.22765
2.21958
2.21666
2.21581
2.21684
2.21974
2.22664
2.24004
2.26415
2.29542
2.34138
2.38927
2.46473
2.52066
3.01994
2.68239
2.50579
2.40407
2.34738
2.30207
2.27176
2.25332
2.23635
2.22453
2.21744
2.21524
2.21364
2.21483
2.2181
2.22526
2.24081
2.26435
2.29578
2.34701
2.40499
2.52735
2.61391
3.00512
2.66518
2.49536
2.39431
2.33644
2.29457
2.26498
2.25049
2.23406
2.22316
2.21638
2.21336
2.21125
2.21238
2.21594
2.22483
2.24121
2.26382
2.30076
2.36113
2.4446
2.61137
2.70895
2.97762
2.64045
2.47443
2.37914
2.32459
2.28539
2.2608
2.24632
2.23023
2.22117
2.21458
2.21125
2.20855
2.20981
2.21422
2.22461
2.24114
2.26693
2.31371
2.41116
2.51238
2.70535
2.82801
2.9671
2.62171
2.46565
2.37036
2.3118
2.27851
2.25649
2.24333
2.22728
2.21886
2.21223
2.20864
2.20603
2.20762
2.21325
2.2246
2.24296
2.27885
2.3547
2.48373
2.60169
2.82217
2.94899
2.93866
2.60142
2.4483
2.35687
2.30005
2.27127
2.2529
2.23861
2.22377
2.21582
2.20959
2.20555
2.20357
2.20592
2.21295
2.22619
2.25786
2.32001
2.41733
2.58062
2.70975
2.93661
3.09071
2.92872
2.5831
2.44052
2.34698
2.28888
2.26705
2.25082
2.2351
2.21925
2.21153
2.20582
2.20281
2.20166
2.20525
2.2155
2.24236
2.30123
2.38128
2.50396
2.68156
2.82923
3.07081
3.21453
2.90307
2.56662
2.42545
2.33446
2.28102
2.2634
2.24705
2.22824
2.21504
2.20709
2.20241
2.20002
2.2001
2.20614
2.23258
2.28181
2.36432
2.46549
2.59663
2.80038
2.9516
3.19946
3.3596
2.89419
2.55147
2.41675
2.32432
2.27595
2.26166
2.24394
2.22415
2.2108
2.20237
2.19875
2.19777
2.20036
2.2188
2.27141
2.3421
2.44478
2.55883
2.70421
2.91052
3.07699
3.3282
3.48904
2.87086
2.53824
2.40374
2.31596
2.27275
2.25894
2.23688
2.21659
2.2061
2.19805
2.19577
2.1972
2.20866
2.2531
2.32859
2.4169
2.53365
2.66124
2.80837
3.0287
3.19869
3.45863
3.62692
2.86329
2.52631
2.39327
2.3087
2.26997
2.25683
2.23214
2.21202
2.20228
2.1946
2.19335
2.20005
2.23607
2.30698
2.39935
2.50205
2.62817
2.76358
2.91803
3.1351
3.31543
3.58314
3.76306
2.8417
2.51572
2.38425
2.30433
2.26762
2.2518
2.22252
2.20534
2.19788
2.19178
2.19322
2.21586
2.28397
2.37662
2.4795
2.59118
2.72202
2.86344
3.02025
3.24036
3.42964
3.69696
3.8952
2.83557
2.50761
2.37374
2.30095
2.26425
2.24803
2.21643
2.2031
2.20038
2.19477
2.20432
2.25258
2.34834
2.45549
2.56366
2.68095
2.81395
2.95869
3.12018
3.33912
3.53722
3.81405
4.03126
2.81508
2.4987
2.36732
2.29708
2.26289
2.23849
2.2087
2.19889
2.19808
2.19954
2.22638
2.30425
2.42287
2.53978
2.64883
2.76766
2.89989
3.04629
3.21163
3.42784
3.63922
3.91846
4.16072
2.81019
2.49816
2.35969
2.29334
2.26011
2.23286
2.20548
2.20118
2.21286
2.23123
2.27992
2.37462
2.50495
2.62334
2.73104
2.84959
2.98085
3.12761
3.29748
3.51783
3.73684
4.02603
4.2847
2.79107
2.4862
2.35259
2.28936
2.25357
2.22611
2.20065
2.20359
2.22944
2.26288
2.33441
2.44747
2.58567
2.7046
2.8091
2.92524
3.05345
3.20067
3.37432
3.59336
3.82803
4.12841
4.39864
2.78542
2.4892
2.34749
2.27975
2.24729
2.22034
2.20149
2.21938
2.27344
2.32938
2.42476
2.54198
2.67665
2.78664
2.88508
2.99666
3.12196
3.26799
3.44627
3.67158
3.91619
4.2279
4.51642
2.77564
2.48908
2.34038
2.27688
2.24393
2.21898
2.20576
2.25971
2.33494
2.40333
2.51139
2.62932
2.7556
2.85882
2.9519
3.05961
3.18167
3.32871
3.51257
3.7427
4.00332
4.32843
4.61809
2.76748
2.4868
2.33319
2.27267
2.24337
2.21998
2.22737
2.31629
2.40731
2.48148
2.59817
2.71241
2.83123
2.9242
3.01168
3.11526
3.2359
3.3834
3.57197
3.80809
4.08241
4.41846
4.73092
2.75885
2.48021
2.32391
2.27386
2.24833
2.2323
2.27032
2.38786
2.48602
2.56704
2.68589
2.79441
2.89754
2.98309
3.06466
3.16424
3.28174
3.4302
3.62612
3.86932
4.15869
4.50471
4.81021
2.75205
2.46928
2.3174
2.27459
2.2635
2.26849
2.33074
2.46258
2.56643
2.6495
2.76509
2.86403
2.95909
3.03461
3.11066
3.2065
3.32389
3.47438
3.67478
3.92586
4.22688
4.58103
4.91519
2.74543
2.45774
2.31078
2.28244
2.2972
2.32122
2.40325
2.54313
2.64735
2.73158
2.84086
2.93089
3.00992
3.07956
3.15055
3.24333
3.3584
3.51075
3.7197
3.97646
4.29344
4.65633
4.98238
2.7401
2.44545
2.30833
2.29764
2.3367
2.38607
2.48176
2.61966
2.72373
2.80556
2.90624
2.98422
3.05567
3.11752
3.18453
3.27468
3.39091
3.54658
3.75968
4.02805
4.35192
4.71844
5.06901
2.73431
2.43539
2.30944
2.32209
2.38711
2.4556
2.55971
2.69509
2.79479
2.87325
2.96288
3.03076
3.09249
3.14923
3.21335
3.30167
3.41676
3.57549
3.7963
4.06704
4.40712
4.78048
5.14076
2.7272
2.42738
2.31736
2.35503
2.43658
2.52523
2.63505
2.76228
2.85889
2.93054
3.01147
3.06962
3.12293
3.17505
3.23746
3.32436
3.44132
3.60396
3.82897
4.11294
4.45819
4.83263
5.20461
2.71967
2.42154
2.33952
2.39459
2.49022
2.59089
2.70168
2.82429
2.91357
2.97857
3.0492
3.09803
3.14754
3.1958
3.25773
3.3439
3.46109
3.62765
3.85769
4.14034
4.50306
4.879
5.27326
2.70941
2.42505
2.36592
2.43798
2.54054
2.65347
2.76221
2.87587
2.96025
3.01795
3.07968
3.12276
3.16611
3.21258
3.27466
3.3602
3.47917
3.64884
3.8853
4.18273
4.54744
4.93184
5.3331
2.69892
2.42886
2.3958
2.48318
2.59177
2.70874
2.81384
2.9207
2.99965
3.04782
3.1056
3.14175
3.18197
3.22592
3.28898
3.37444
3.49479
3.66845
3.90852
4.20483
4.58355
4.96684
5.3874
2.68635
2.44389
2.42796
2.52673
2.63751
2.75951
2.85797
2.95727
3.02812
3.0747
3.12368
3.15708
3.19385
3.23705
3.30105
3.38608
3.50737
3.68344
3.93251
4.24515
4.62186
5.01784
5.43489
2.67573
2.45627
2.45945
2.56935
2.68243
2.80342
2.89563
2.98813
3.05539
3.0957
3.1411
3.17035
3.20373
3.24636
3.3114
3.39657
3.52029
3.69968
3.9542
4.27207
4.64999
5.04989
5.4723
2.66319
2.48018
2.49362
2.60843
2.72068
2.84163
2.92748
3.01466
3.07387
3.11667
3.15503
3.18116
3.21458
3.25435
3.32017
3.40477
3.52861
3.71168
3.97542
4.30768
4.67401
5.08474
5.51104
2.65976
2.49814
2.53211
2.64596
2.75767
2.87606
2.95499
3.03793
3.09324
3.13532
3.16107
3.18863
3.22121
3.26146
3.32779
3.41236
3.53886
3.72511
3.99592
4.3398
4.6958
5.13231
5.56344
2.6529
2.52953
2.57332
2.6833
2.79105
2.90597
2.97868
3.05743
3.10851
3.14377
3.17043
3.19447
3.22388
3.26782
3.33424
3.41822
3.54468
3.73735
4.01191
4.3637
4.70699
5.16308
5.62917
2.65676
2.55573
2.62237
2.71988
2.82536
2.9371
3.00493
3.07566
3.12371
3.15211
3.17446
3.19939
3.22643
3.27329
3.33988
3.42336
3.5532
3.74814
4.0282
4.39808
4.72636
5.23902
5.69948
2.66501
2.59691
2.67423
2.75988
2.85898
2.96345
3.02671
3.09212
3.13679
3.15944
3.17515
3.20007
3.23018
3.27869
3.34464
3.42774
3.55841
3.75861
4.04016
4.43038
4.74812
5.28499
5.70967
2.68641
2.63443
2.72799
2.80104
2.89458
2.99285
3.04952
3.10799
3.14852
3.16356
3.17911
3.20134
3.23344
3.28279
3.34874
3.43126
3.56533
3.76999
4.04968
4.45191
4.77228
5.34777
5.69643
2.71113
2.6835
2.78197
2.84425
2.92711
3.01633
3.06834
3.11858
3.14964
3.1673
3.18557
3.20461
3.23741
3.28716
3.35225
3.43412
3.57123
3.77701
4.05838
4.51363
4.83945
5.42889
5.74793
2.74185
2.72802
2.83474
2.88795
2.9595
3.04044
3.08513
3.13288
3.15173
3.1708
3.1859
3.20887
3.23853
3.29091
3.35504
3.43677
3.57703
3.79017
4.06802
4.54038
4.86814
5.44667
5.73224
2.77145
2.77629
2.87987
2.92756
2.98725
3.0638
3.1021
3.14107
3.15652
3.17448
3.18723
3.20883
3.24227
3.29424
3.3576
3.43943
3.58511
3.79718
4.07855
4.58858
4.87542
5.44689
5.67014
2.79902
2.81549
2.91742
2.96452
3.01474
3.08238
3.11465
3.14615
3.15966
3.18013
3.19031
3.20948
3.24235
3.29785
3.35932
3.44143
3.59071
3.81043
4.09758
4.6111
4.93017
5.37644
5.59783
2.82461
2.85658
2.94883
2.99642
3.03687
3.09612
3.12579
3.14837
3.16372
3.18078
3.19366
3.2117
3.24473
3.3003
3.36113
3.44412
3.60027
3.82354
4.11332
4.59975
4.92375
5.40312
5.63507
2.84685
2.88811
2.97433
3.0214
3.05878
3.10544
3.13205
3.153
3.16905
3.18188
3.19648
3.21272
3.24726
3.30109
3.36206
3.44652
3.60547
3.83322
4.12716
4.54381
4.86777
5.40257
5.63994
2.86835
2.9223
2.9912
3.03902
3.07521
3.11404
3.13979
3.15739
3.17419
3.18559
3.19906
3.21445
3.25016
3.30212
3.36317
3.44875
3.61521
3.85942
4.16811
4.5568
4.8493
5.35941
5.56513
2.88876
2.94606
3.00502
3.05286
3.09001
3.12256
3.14472
3.16331
3.17877
3.19096
3.20271
3.21834
3.25213
3.3037
3.36362
3.45143
3.61934
3.86566
4.15671
4.50556
4.78497
5.2507
5.49334
2.90461
2.9661
3.01911
3.06662
3.10116
3.13213
3.15137
3.16927
3.18272
3.196
3.20689
3.22058
3.25471
3.3044
3.36434
3.45502
3.62712
3.87666
4.13387
4.44364
4.72093
5.12819
5.36369
2.9222
2.98044
3.03436
3.08015
3.11182
3.14161
3.15654
3.1757
3.18715
3.20095
3.21125
3.22456
3.2569
3.3064
3.36438
3.45271
3.62384
3.86513
4.09075
4.36409
4.61511
4.97248
5.20001
2.93673
2.9935
3.04905
3.09296
3.12087
3.15015
3.1631
3.18245
3.19208
3.20596
3.21623
3.22781
3.26029
3.30751
3.36477
3.45287
3.62522
3.84617
4.07373
4.3262
4.54679
4.85629
5.09974
2.95349
3.00652
3.06254
3.10409
3.12988
3.15782
3.16865
3.18862
3.19725
3.21064
3.2205
3.2322
3.26336
3.30925
3.36431
3.44848
3.61709
3.81198
4.03728
4.25713
4.43523
4.72586
4.94416
2.96985
3.0205
3.07488
3.11349
3.13799
3.16418
3.17518
3.19541
3.20319
3.21535
3.22537
3.23629
3.26733
3.31011
3.36449
3.44607
3.60741
3.79141
4.00286
4.20183
4.38177
4.67821
4.90749
2.98626
3.03413
3.08566
3.12129
3.14542
3.16993
3.18102
3.20134
3.20835
3.21938
3.22951
3.24022
3.27024
3.31036
3.36319
3.44156
3.59085
3.76622
3.96072
4.14166
4.31641
4.60622
4.81712
3.00132
3.04697
3.09611
3.12873
3.15264
3.17519
3.18757
3.20754
3.21375
3.22345
3.23406
3.24397
3.27299
3.31123
3.36192
3.43746
3.57457
3.74316
3.92116
4.08869
4.2628
4.54401
4.73701
3.01572
3.05892
3.10601
3.13597
3.16018
3.18088
3.19403
3.21369
3.21873
3.22762
3.23844
3.2478
3.27551
3.31103
3.36077
3.43373
3.5597
3.72221
3.88495
4.0439
4.21445
4.49606
4.67275
3.02989
3.07074
3.11663
3.14372
3.16818
3.18659
3.20112
3.21975
3.22382
3.23179
3.24308
3.25169
3.27767
3.31126
3.3599
3.43028
3.5467
3.70343
3.85368
4.00635
4.18707
4.46331
4.62909
3.04287
3.08151
3.12619
3.1517
3.17676
3.19265
3.20783
3.22591
3.2287
3.23628
3.24729
3.25548
3.27981
3.31139
3.35909
3.42722
3.53576
3.68662
3.82718
3.97799
4.16085
4.45062
4.60442
3.05587
3.09239
3.13662
3.15954
3.18519
3.19885
3.21454
3.23163
3.2334
3.24044
3.25158
3.25947
3.28165
3.31218
3.35844
3.42464
3.52689
3.67183
3.80578
3.95672
4.14519
4.43457
4.60183
3.06871
3.10385
3.14545
3.16821
3.1942
3.20487
3.22085
3.23708
3.2384
3.24489
3.25522
3.26305
3.28348
3.31189
3.35783
3.42244
3.5199
3.65885
3.78921
3.94259
4.13331
4.43428
4.59908
3.08049
3.1144
3.15503
3.17604
3.20196
3.2113
3.2266
3.24244
3.24301
3.24891
3.259
3.26709
3.28528
3.31286
3.35713
3.42058
3.51471
3.64784
3.77606
3.9317
4.12386
4.42373
4.59863
3.09358
3.12701
3.16313
3.18431
3.21015
3.21704
3.23237
3.24676
3.24807
3.253
3.26208
3.27041
3.287
3.31408
3.3563
3.41908
3.51118
3.63919
3.76617
3.92441
4.12117
4.4237
4.60296
3.10466
3.13773
3.17168
3.19263
3.21667
3.22344
3.23731
3.25155
3.25273
3.25711
3.26561
3.2742
3.28867
3.31455
3.35529
3.41781
3.50866
3.63281
3.75871
3.91774
4.10393
4.41817
4.60306
3.1172
3.15017
3.17945
3.20015
3.22346
3.22899
3.24278
3.25505
3.25771
3.26078
3.26852
3.27772
3.2907
3.31558
3.35409
3.41654
3.50636
3.62793
3.75307
3.90958
4.09882
4.43042
4.60593
3.12845
3.16057
3.187
3.2086
3.22888
3.23536
3.24792
3.25948
3.26209
3.26536
3.27212
3.28128
3.29294
3.31524
3.35268
3.41499
3.50344
3.62314
3.74901
3.90033
4.09607
4.4126
4.61265
3.14173
3.17314
3.19609
3.21788
3.23505
3.24106
3.25357
3.26328
3.26762
3.26955
3.27634
3.28577
3.29518
3.31541
3.3523
3.41299
3.49935
3.61703
3.74593
3.8876
4.07665
4.41614
4.59728
3.15486
3.18411
3.20411
3.2262
3.24131
3.24825
3.26098
3.26858
3.27229
3.27467
3.28035
3.28951
3.29971
3.3164
3.35247
3.4104
3.49394
3.60881
3.74127
3.883
4.07482
4.39348
4.59577
3.17058
3.19741
3.21537
3.2378
3.24785
3.25454
3.26725
3.27348
3.27861
3.28031
3.28634
3.29485
3.30251
3.31721
3.35194
3.40723
3.48731
3.59827
3.7316
3.8731
4.0778
4.39012
4.59823
3.18556
3.21071
3.22781
3.24733
3.25737
3.26329
3.27392
3.28027
3.28388
3.28585
3.29092
3.29844
3.30449
3.31766
3.35111
3.40362
3.47981
3.58591
3.71621
3.8728
4.0735
4.39296
4.57061
3.20123
3.22248
3.23565
3.25323
3.26352
3.27074
3.28073
3.2849
3.28968
3.29132
3.29505
3.30063
3.30438
3.3176
3.3501
3.39967
3.47161
3.57216
3.69603
3.85939
4.04509
4.35522
4.51059
3.21043
3.23083
3.24327
3.25701
3.26659
3.27543
3.28305
3.2884
3.28975
3.29189
3.29505
3.30213
3.30467
3.31754
3.3492
3.39565
3.46311
3.55779
3.67285
3.83388
4.00372
4.29316
4.43291
3.21556
3.23728
3.24663
3.26091
3.26947
3.27875
3.28398
3.28822
3.29067
3.29265
3.29589
3.30339
3.3052
3.31827
3.34819
3.39157
3.45429
3.54299
3.64806
3.80141
3.95629
4.21944
4.34638
3.21594
3.23676
3.24966
3.26109
3.27129
3.28201
3.28434
3.28852
3.29315
3.29343
3.29644
3.30271
3.30528
3.31711
3.34735
3.38772
3.44559
3.52837
3.62328
3.76569
3.90797
4.14268
4.2577
3.22004
3.2371
3.24888
3.2619
3.27218
3.28144
3.28592
3.28921
3.2927
3.29361
3.29678
3.30318
3.30539
3.31719
3.34649
3.38394
3.43688
3.51378
3.5991
3.72964
3.86238
4.06797
4.1716
3.21849
3.2382
3.25068
3.26296
3.27344
3.28152
3.28632
3.29019
3.29279
3.29373
3.29811
3.30303
3.30539
3.31784
3.34576
3.38052
3.42867
3.49976
3.57645
3.69559
3.82095
3.99887
4.09202
3.21799
3.23844
3.25134
3.26496
3.27191
3.28353
3.28695
3.29173
3.29404
3.29503
3.29914
3.3027
3.30537
3.31649
3.34487
3.37714
3.42071
3.486
3.55531
3.66465
3.78342
3.93732
4.02134
3.21767
3.23904
3.2516
3.26463
3.27221
3.28235
3.28527
3.29057
3.29325
3.29378
3.29819
3.30287
3.30636
3.3163
3.34413
3.37414
3.41353
3.47317
3.53633
3.63766
3.74965
3.88374
3.96019
3.21931
3.23858
3.24984
3.26385
3.27265
3.28329
3.2853
3.29006
3.29332
3.2939
3.29805
3.30138
3.30498
3.31593
3.3431
3.37105
3.40667
3.46087
3.51902
3.6142
3.71885
3.83752
3.90751
3.21957
3.23915
3.25049
3.26421
3.27045
3.28138
3.28599
3.2897
3.29355
3.29388
3.29804
3.30232
3.30495
3.31567
3.3422
3.36835
3.40081
3.44987
3.5039
3.59427
3.69086
3.79776
3.86208
3.21949
3.2387
3.25281
3.26379
3.27048
3.2811
3.28676
3.29068
3.29169
3.29386
3.29832
3.30088
3.30499
3.31578
3.34096
3.3654
3.39525
3.43943
3.49006
3.57657
3.66472
3.76276
3.82202
3.21801
3.23871
3.25031
3.2635
3.27144
3.28183
3.28477
3.28882
3.29181
3.29332
3.29826
3.3008
3.30537
3.31387
3.33993
3.36288
3.39079
3.43058
3.47823
3.56124
3.64075
3.73171
3.78635
3.21716
3.24098
3.25063
3.2649
3.26905
3.28249
3.28476
3.2886
3.29137
3.2933
3.29642
3.30006
3.30361
3.31356
3.33857
3.35999
3.38629
3.42211
3.46705
3.54664
3.61778
3.70247
3.75387
3.21714
3.23868
3.24865
3.26322
3.26913
3.27977
3.2854
3.28855
3.29134
3.29384
3.2968
3.29971
3.30361
3.31388
3.33735
3.35761
3.38282
3.41535
3.45778
3.53381
3.5971
3.67531
3.72442
3.2121
3.23831
3.24941
3.26177
3.27069
3.27908
3.28298
3.28807
3.29247
3.29419
3.29657
3.29903
3.30336
3.31181
3.33589
3.35475
3.37883
3.40847
3.44846
3.52065
3.57676
3.64826
3.69555
3.21101
3.23595
3.24556
3.26105
3.26782
3.27895
3.28249
3.28702
3.29264
3.29197
3.29614
3.29902
3.30317
3.31168
3.33459
3.35253
3.37585
3.40323
3.44099
3.50926
3.55895
3.62312
3.66863
3.21359
3.23432
3.24787
3.25942
3.26732
3.27587
3.28303
3.28602
3.29168
3.29183
3.29514
3.2968
3.30396
3.31209
3.333
3.34965
3.37191
3.39724
3.43277
3.49672
3.54068
3.59734
3.6408
3.20861
3.23351
3.24467
3.25883
3.26758
3.27544
3.28305
3.28588
3.29039
3.29317
3.29397
3.29855
3.30321
3.3129
3.33163
3.34753
3.36906
3.39279
3.42637
3.48616
3.52514
3.57417
3.61485
3.21293
3.22819
3.24582
3.25743
3.264
3.27512
3.28242
3.28294
3.28729
3.29301
3.29288
3.29658
3.30219
3.31209
3.32966
3.34453
3.36493
3.38707
3.41852
3.47361
3.50818
3.54999
3.58746
3.20819
3.22724
3.24145
3.25686
3.26341
3.27632
3.28057
3.28245
3.28662
3.29202
3.29122
3.29766
3.3004
3.31016
3.32816
3.34245
3.3621
3.38292
3.41267
3.46352
3.49438
3.5293
3.56261
3.21117
3.22796
3.24509
3.25755
3.26459
3.27501
3.27918
3.28294
3.28734
3.29101
3.29144
3.29661
3.2973
3.30743
3.3258
3.33924
3.35775
3.37708
3.40462
3.45044
3.47814
3.50718
3.53618
3.20967
3.22751
3.24093
3.25814
3.26419
3.27175
3.27699
3.2826
3.28683
3.28851
3.28848
3.29506
3.29668
3.30395
3.32429
3.33716
3.35498
3.37313
3.3993
3.4409
3.46589
3.48993
3.5137
3.20619
3.22265
3.24275
3.25548
3.26273
3.26717
3.27555
3.27985
3.28526
3.28657
3.29035
3.29347
3.29697
3.30324
3.32177
3.33369
3.35041
3.36697
3.39073
3.42713
3.44986
3.47028
3.48955
3.20013
3.21531
3.24105
3.2509
3.25882
3.26618
3.2713
3.27571
3.28406
3.28443
3.28772
3.29062
3.29724
3.30413
3.32041
3.33162
3.34773
3.36335
3.38619
3.41861
3.43906
3.45658
3.47165
3.19552
3.21384
3.23839
3.24454
3.25668
3.26683
3.27013
3.27452
3.28265
3.28237
3.28861
3.28682
3.29351
3.30269
3.31761
3.32794
3.34301
3.35704
3.37706
3.40475
3.42353
3.43886
3.45084
3.19291
3.21496
3.23366
3.2426
3.25296
3.26597
3.27107
3.27478
3.28056
3.27884
3.2878
3.28543
3.29137
3.30004
3.31396
3.32399
3.33802
3.35085
3.36825
3.39188
3.40921
3.4231
3.43349
3.18315
3.2138
3.22623
3.2431
3.25225
3.26202
3.26858
3.27125
3.27756
3.2766
3.28456
3.28489
3.28806
3.29473
3.30944
3.31962
3.33271
3.34441
3.35921
3.37891
3.39471
3.4071
3.41651
3.18031
3.20778
3.21568
3.23976
3.24807
3.2559
3.26536
3.26679
3.27306
3.27607
3.28001
3.28135
3.28441
3.29123
3.30454
3.31458
3.32648
3.33754
3.35008
3.366
3.38011
3.39114
3.40011
3.18141
3.20376
3.212
3.23369
3.24195
3.24736
3.2608
3.26117
3.26763
3.2725
3.27497
3.27637
3.28271
3.28659
3.30021
3.30917
3.31997
3.33002
3.34062
3.35318
3.36557
3.37507
3.38341
3.1774
3.19536
3.21156
3.22616
3.23496
3.23575
3.25564
3.25432
3.26181
3.26825
3.26868
3.27018
3.27757
3.28277
3.29507
3.30278
3.31211
3.32186
3.33114
3.34063
3.35087
3.35891
3.36657
3.1707
3.18895
3.20541
3.21874
3.23013
3.23167
3.24842
3.2499
3.25679
3.26293
3.26322
3.26518
3.27182
3.2787
3.28925
3.29586
3.30411
3.31255
3.32089
3.32827
3.33662
3.34315
3.34968
3.15684
3.17629
3.19434
3.21011
3.22184
3.2321
3.2398
3.24385
3.25079
3.25642
3.25697
3.25961
3.2651
3.27246
3.28144
3.28742
3.2942
3.30236
3.31023
3.31603
3.32236
3.32738
3.3331
3.1379
3.16139
3.18127
3.19961
3.21082
3.22462
3.22899
3.2337
3.24041
3.24676
3.24852
3.25186
3.25648
3.26368
3.27284
3.27862
3.28458
3.2908
3.29815
3.30376
3.3093
3.31288
3.31733
3.12402
3.14449
3.16857
3.18582
3.19841
3.2137
3.21813
3.22177
3.22792
3.23585
3.23825
3.24204
3.2466
3.2539
3.26198
3.26756
3.27278
3.27863
3.28515
3.28976
3.29491
3.29803
3.30202
3.09508
3.12476
3.15573
3.16811
3.18394
3.19885
3.20508
3.20817
3.21269
3.22069
3.22522
3.22981
3.23395
3.24094
3.24933
3.25514
3.26014
3.26438
3.27055
3.27542
3.28043
3.28304
3.28664
3.07409
3.11039
3.13992
3.14937
3.16822
3.1826
3.19137
3.1947
3.19897
3.20715
3.21168
3.21656
3.22092
3.22698
3.23437
3.24024
3.24504
3.24896
3.25352
3.25716
3.26243
3.26546
3.26948
3.0519
3.09376
3.11852
3.12879
3.14855
3.16218
3.17363
3.17816
3.18225
3.18898
3.19411
3.19893
3.20281
3.20884
3.2155
3.22151
3.22726
3.23102
3.23612
3.23907
3.2436
3.24595
3.24992
3.04337
3.07262
3.09321
3.1075
3.12649
3.14025
3.15379
3.16011
3.16572
3.17254
3.17666
3.18095
3.1847
3.18979
3.19595
3.20092
3.20599
3.20961
3.21428
3.21716
3.22214
3.22458
3.22875
3.01855
3.04429
3.06283
3.08076
3.09826
3.11231
3.1273
3.13533
3.14234
3.14827
3.15241
3.15614
3.15917
3.16427
3.17059
3.17617
3.18222
3.18605
3.191
3.19317
3.19691
3.19876
3.20218
2.98804
3.01152
3.03087
3.0519
3.06862
3.08306
3.09771
3.10757
3.1165
3.12361
3.1284
3.1316
3.13449
3.13823
3.14362
3.14792
3.15283
3.15597
3.16095
3.16418
3.16838
3.17027
3.17359
2.95087
2.97293
2.99386
3.01546
3.03192
3.04663
3.06058
3.07036
3.08093
3.08821
3.09338
3.09793
3.10075
3.10548
3.11164
3.11722
3.12177
3.12455
3.12756
3.1296
3.13341
3.13556
3.13954
2.90921
2.93137
2.95502
2.97756
2.99479
3.00988
3.02177
3.03226
3.04348
3.05142
3.05837
3.0632
3.06683
3.07085
3.07442
3.07956
3.08433
3.08707
3.09049
3.09229
3.09558
3.09756
3.10153
2.86253
2.88464
2.90927
2.93083
2.94783
2.96411
2.97507
2.98391
2.99604
3.0041
3.00931
3.01628
3.02083
3.02728
3.03351
3.03744
3.0424
3.04441
3.04802
3.04968
3.05277
3.05522
3.06058
2.81158
2.83512
2.8612
2.88404
2.90145
2.91756
2.92789
2.93761
2.94813
2.95675
2.96431
2.96853
2.97383
2.97728
2.98348
2.98836
2.99381
2.99728
2.99951
3.00305
3.00683
3.00914
3.0151
2.75458
2.77882
2.80393
2.8255
2.8417
2.85854
2.869
2.87708
2.88834
2.89518
2.90175
2.90889
2.91382
2.91956
2.92422
2.92902
2.93361
2.9398
2.94305
2.94587
2.95081
2.95424
2.96136
2.69396
2.71874
2.74472
2.76918
2.78425
2.79884
2.81055
2.81991
2.82862
2.83659
2.8437
2.84951
2.85535
2.85964
2.86611
2.87186
2.87501
2.87876
2.88333
2.88578
2.8903
2.893
2.90134
2.62459
2.64813
2.67154
2.69539
2.70978
2.72258
2.73343
2.74236
2.75183
2.75781
2.76401
2.77112
2.77728
2.78202
2.78729
2.79333
2.80191
2.80715
2.81222
2.8156
2.81959
2.82012
2.82221
2.54935
2.57334
2.59718
2.62462
2.6387
2.65038
2.66169
2.67126
2.67869
2.68529
2.69212
2.697
2.70307
2.70842
2.71319
2.71802
2.72229
2.73002
2.73612
2.74223
2.74737
2.75194
2.75318
2.4722
2.48573
2.50286
2.52628
2.54129
2.55149
2.56269
2.5725
2.5809
2.58506
2.58928
2.59561
2.59906
2.60465
2.60739
2.61232
2.61594
2.62205
2.62751
2.63426
2.63818
2.64444
2.64951
2.35024
2.39691
2.41575
2.43781
2.45194
2.46362
2.47433
2.48608
2.49437
2.50173
2.50491
2.50951
2.51456
2.51887
2.52425
2.52879
2.53251
2.53537
2.53926
2.54444
2.54868
2.55456
2.5617
2.26735
2.29088
2.30059
2.31536
2.32687
2.33529
2.34504
2.3554
2.3645
2.37109
2.37643
2.3803
2.38408
2.38769
2.39072
2.39414
2.40094
2.4051
2.40765
2.41044
2.41509
2.41855
2.42411
2.11116
2.18964
2.2098
2.22312
2.23363
2.2409
2.24747
2.25739
2.26606
2.27394
2.27976
2.28698
2.29192
2.29721
2.30131
2.30328
2.30803
2.31184
2.3185
2.32126
2.3263
2.32881
2.33796
2.01794
2.05502
2.06891
2.07919
2.0869
2.09218
2.09575
2.10091
2.10744
2.11362
2.11968
2.12335
2.13023
2.13157
2.13422
2.13531
2.13833
2.142
2.14712
2.15206
2.15735
2.1598
2.16943
1.92518
1.95897
1.98486
1.99611
2.00419
2.0098
2.01328
2.01769
2.02383
2.02953
2.03596
2.03968
2.04558
2.04856
2.05118
2.05204
2.05448
2.05803
2.06209
2.06725
2.07218
2.07659
2.08383
1.8425
1.78396
1.78692
1.79119
1.79521
1.79853
1.79874
1.79914
1.80251
1.80329
1.80762
1.80837
1.8112
1.81408
1.81472
1.81621
1.81671
1.81881
1.82287
1.82538
1.83109
1.83573
1.84216
3.04129
2.70271
2.52737
2.42393
2.35545
2.30806
2.27645
2.2575
2.23902
2.22545
2.2203
2.21557
2.21383
2.21234
2.2143
2.22073
2.23746
2.26397
2.32268
2.40077
2.51054
2.67918
2.82849
3.05564
2.72532
2.54813
2.44157
2.36465
2.31426
2.28301
2.26175
2.24301
2.22961
2.22403
2.21724
2.2158
2.21387
2.21543
2.22035
2.2308
2.25094
2.28612
2.34229
2.44829
2.58331
2.70839
3.07799
2.75232
2.57492
2.45886
2.38151
2.3284
2.29473
2.26915
2.24902
2.23629
2.22669
2.21909
2.21732
2.2152
2.21664
2.22104
2.23068
2.24812
2.2769
2.32109
2.41494
2.47452
2.61232
3.09526
2.77411
2.59095
2.47133
2.3924
2.33706
2.30037
2.27396
2.25636
2.2416
2.23136
2.22248
2.21963
2.21619
2.21737
2.22147
2.2305
2.24686
2.2734
2.31301
2.37158
2.43452
2.55078
3.11466
2.80613
2.61685
2.4979
2.41105
2.34964
2.31368
2.28322
2.2642
2.24743
2.23578
2.22551
2.22209
2.21768
2.21854
2.22213
2.23072
2.24599
2.27214
2.30783
2.36382
2.41141
2.49604
3.13255
2.82416
2.63869
2.50989
2.41708
2.36137
2.32169
2.29173
2.27274
2.25371
2.24306
2.23056
2.22456
2.21881
2.2194
2.22265
2.23106
2.24512
2.27264
2.30677
2.3597
2.40307
2.46988
3.14406
2.84776
2.65611
2.52461
2.44069
2.37979
2.33608
2.30097
2.27843
2.25718
2.24516
2.23278
2.22673
2.2207
2.22072
2.22326
2.23165
2.24509
2.2751
2.30695
2.36197
2.40004
2.4442
3.15191
2.85647
2.66465
2.537
2.44794
2.38303
2.33736
2.3012
2.27835
2.25693
2.24486
2.23281
2.22694
2.22129
2.22087
2.2232
2.23051
2.24304
2.26969
2.30266
2.36047
2.39961
2.43475
2.79404
2.47675
2.34102
2.28111
2.23958
2.21455
2.23205
2.29946
2.35846
2.38725
2.46219
2.57213
2.70828
2.83563
2.93214
3.02711
3.12143
3.23394
3.37543
3.5413
3.75493
3.97175
4.17319
2.81156
2.48902
2.3483
2.28878
2.246
2.21495
2.21481
2.25244
2.30189
2.31764
2.38227
2.48566
2.61943
2.75248
2.86377
2.9682
3.06735
3.18359
3.32304
3.48742
3.68592
3.89949
4.10576
2.81398
2.49807
2.35992
2.29548
2.25833
2.22349
2.2079
2.22268
2.25351
2.26753
2.31783
2.40567
2.53568
2.67605
2.79084
2.90353
3.00581
3.12602
3.26695
3.42427
3.63149
3.82193
4.01596
2.83125
2.51023
2.3674
2.30354
2.26605
2.23208
2.21051
2.20635
2.22373
2.22893
2.26025
2.33527
2.4493
2.58502
2.70993
2.83292
2.94014
3.0657
3.20337
3.36209
3.55354
3.74428
3.94265
2.83631
2.5222
2.378
2.30716
2.275
2.24086
2.21282
2.20058
2.20489
2.20653
2.22803
2.27886
2.37157
2.49896
2.62663
2.75629
2.86641
2.99834
3.13681
3.29023
3.49417
3.66355
3.85004
2.85643
2.53269
2.3898
2.31295
2.28205
2.25281
2.21989
2.20507
2.20428
2.20172
2.20441
2.23596
2.304
2.41707
2.54092
2.6769
2.7902
2.92836
3.06238
3.22223
3.40557
3.58445
3.76803
2.86379
2.54925
2.39859
2.31909
2.28814
2.25832
2.22386
2.20795
2.20514
2.20204
2.20125
2.21154
2.25331
2.33793
2.45758
2.59481
2.70879
2.85259
2.98458
3.14116
3.33825
3.50033
3.67285
2.8874
2.55889
2.4138
2.32474
2.29434
2.2659
2.23194
2.21557
2.21057
2.20616
2.20101
2.19924
2.21876
2.28205
2.38093
2.51429
2.62723
2.77473
2.90109
3.06973
3.24444
3.41492
3.58773
2.89655
2.57761
2.4229
2.33523
2.2983
2.26963
2.23541
2.22085
2.21589
2.20999
2.20391
2.19787
2.20323
2.23355
2.31322
2.43612
2.54534
2.69354
2.81511
2.98394
3.16108
3.32658
3.49622
2.92345
2.59013
2.43901
2.34395
2.30436
2.27382
2.2419
2.22683
2.22052
2.21349
2.20705
2.19879
2.20017
2.21409
2.26334
2.36538
2.46771
2.61132
2.72849
2.9066
3.06552
3.23338
3.40996
2.93457
2.60902
2.44733
2.35676
2.31102
2.27787
2.24527
2.23113
2.22401
2.21568
2.20919
2.20164
2.20107
2.20492
2.22911
2.30438
2.39587
2.53144
2.64184
2.81931
2.96226
3.14433
3.31414
2.96381
2.62478
2.46626
2.37071
2.31671
2.28079
2.25255
2.23668
2.22752
2.21747
2.21217
2.20473
2.20364
2.20522
2.21528
2.26045
2.33518
2.45211
2.56123
2.73209
2.86755
3.04992
3.21921
2.97521
2.64697
2.47654
2.38246
2.32566
2.28699
2.25644
2.2415
2.23032
2.21931
2.21368
2.20765
2.20645
2.20692
2.21175
2.23355
2.28597
2.3857
2.4834
2.6446
2.76191
2.95524
3.11709
3.00637
2.66144
2.4934
2.39847
2.33425
2.29169
2.26383
2.24713
2.23328
2.22118
2.21688
2.21091
2.20892
2.20892
2.21192
2.22358
2.25629
2.3264
2.42206
2.5627
2.68202
2.87697
3.01723
3.01622
2.68799
2.51245
2.41189
2.34256
2.29899
2.26999
2.25231
2.23633
2.22325
2.21828
2.21343
2.21164
2.21075
2.213
2.22054
2.24019
2.28138
2.35296
2.46343
2.57409
2.75832
2.89776
2.93075
3.0015
3.04634
3.08639
3.12371
3.14777
3.17253
3.17643
3.19183
3.2068
3.21814
3.22666
3.2475
3.28551
3.33779
3.4048
3.52092
3.72067
4.0176
4.40494
4.84209
5.15988
5.45032
2.92346
2.98378
3.03746
3.08624
3.11723
3.14761
3.16825
3.17522
3.18477
3.20642
3.21669
3.22618
3.24798
3.28486
3.33635
3.40201
3.51521
3.71001
3.9992
4.38191
4.83157
5.18416
5.46928
2.90138
2.96219
3.0153
3.06999
3.10772
3.14181
3.16583
3.17341
3.18334
3.20162
3.21637
3.22245
3.24493
3.28389
3.33526
3.3991
3.50948
3.69309
3.97192
4.33261
4.80351
5.16586
5.48623
2.89182
2.93462
2.99429
3.05117
3.09716
3.12904
3.16572
3.17361
3.17937
3.19779
3.21271
3.22009
3.24234
3.28236
3.33361
3.3965
3.50303
3.68486
3.95113
4.3109
4.77265
5.11268
5.49012
2.86205
2.90009
2.96319
3.02245
3.08381
3.11996
3.15754
3.16613
3.18048
3.19637
3.21251
3.21944
3.24036
3.27995
3.33187
3.39337
3.49915
3.66853
3.92719
4.27225
4.70492
5.08164
5.48625
2.83874
2.86099
2.9345
2.99927
3.06628
3.10427
3.15229
3.15977
3.17456
3.19615
3.21072
3.21835
3.23959
3.27923
3.32993
3.39015
3.49221
3.66146
3.9049
4.23191
4.67114
5.01993
5.43933
2.81589
2.81827
2.89431
2.9653
3.04629
3.08516
3.14392
3.15769
3.16978
3.19133
3.20735
3.21384
3.2389
3.27677
3.32752
3.38672
3.48784
3.64881
3.8822
4.2002
4.61406
4.95378
5.39328
2.7827
2.77314
2.85875
2.9351
3.02093
3.0614
3.1292
3.14195
3.16954
3.18944
3.20474
3.21249
3.23768
3.27476
3.32484
3.38263
3.48096
3.63913
3.86539
4.17012
4.56673
4.90928
5.33454
2.75335
2.72819
2.81473
2.89895
2.98632
3.03786
3.10844
3.12839
3.16185
3.18846
3.19975
3.2112
3.23377
3.27121
3.32143
3.3785
3.4748
3.62823
3.84336
4.136
4.513
4.83897
5.23776
2.72838
2.68395
2.76969
2.85922
2.95515
3.00982
3.08801
3.10862
3.14952
3.17993
3.19239
3.20961
3.22942
3.26842
3.31736
3.37313
3.46739
3.6173
3.83103
4.11599
4.48023
4.8069
5.19719
2.70502
2.64256
2.72349
2.81377
2.91592
2.97688
3.06226
3.09016
3.13746
3.17316
3.18754
3.2089
3.22677
3.26367
3.31235
3.36788
3.45947
3.60399
3.80702
4.08038
4.4207
4.74595
5.14863
2.68914
2.60104
2.67272
2.76802
2.87169
2.9428
3.0328
3.0657
3.11692
3.16094
3.17205
3.20466
3.22175