/*--------------------------------*- C++ -*----------------------------------*\
  =========                 |
  \\      /  F ield         | OpenFOAM: The Open Source CFD Toolbox
   \\    /   O peration     | Website:  https://openfoam.org
    \\  /    A nd           | Version:  7
     \\/     M anipulation  |
\*---------------------------------------------------------------------------*/
FoamFile
{
    version     2.0;
    format      ascii;
    class       volScalarField;
    location    "42";
    object      p;
}
// * * * * * * * * * * * * * * * * * * * * * * * * * * * * * * * * * * * * * //

dimensions      [0 2 -2 0 0 0 0];

internalField   nonuniform List<scalar> 
12842
(
0.0645474
0.0687952
0.076504
0.090114
0.112917
0.149225
0.205438
0.291272
0.421021
0.614798
0.89919
1.30658
1.87243
2.63007
3.60363
4.79976
6.20032
7.76145
9.41817
11.0935
12.7125
14.2097
15.5498
0.0350155
0.0379134
0.0414467
0.0483769
0.0627603
0.0891608
0.133646
0.205256
0.317425
0.489313
0.746699
1.12168
1.65042
2.36814
3.30199
4.4621
5.8336
7.37491
9.02187
10.6965
12.3225
13.8308
15.1866
0.00978435
0.0107519
0.0104897
0.0112021
0.0176613
0.0344743
0.0670757
0.123527
0.216105
0.362744
0.588291
0.924713
1.40936
2.08008
2.96772
4.08625
5.42381
6.94022
8.571
10.2361
11.8573
13.3611
14.7142
-0.0114131
-0.0119698
-0.0157437
-0.0211229
-0.0222182
-0.0146988
0.00588561
0.046346
0.117497
0.23565
0.424394
0.715422
1.14741
1.76117
2.59173
3.65722
4.94891
6.42798
8.02973
9.67209
11.2757
12.7632
14.1051
-0.0293476
-0.0301398
-0.0374253
-0.0488866
-0.0570973
-0.0586014
-0.0502458
-0.0267168
0.0209547
0.106888
0.252889
0.489981
0.858082
1.40121
2.15902
3.1545
4.38292
5.80777
7.36528
8.97231
10.5495
12.0151
13.3443
-0.044579
-0.0440806
-0.0552034
-0.0725438
-0.0871805
-0.0972917
-0.101096
-0.094939
-0.0720587
-0.02112
0.0773639
0.253266
0.547526
1.00737
1.67746
2.58626
3.73401
5.08768
6.58572
8.14477
9.68615
11.1229
12.4354
-0.0574463
-0.0543238
-0.0697892
-0.092431
-0.11258
-0.130689
-0.146095
-0.156906
-0.158858
-0.14393
-0.0954163
0.0148311
0.228367
0.595274
1.16526
1.97253
3.023
4.288
5.70952
7.20466
8.69647
10.0925
11.3796
-0.0681712
-0.061532
-0.0818564
-0.108918
-0.13374
-0.15928
-0.18552
-0.212453
-0.238481
-0.259303
-0.261356
-0.218889
-0.0903498
0.176478
0.635992
1.32805
2.26473
3.42244
4.74814
6.16004
7.5851
8.92448
10.1759
-0.0778246
-0.0663838
-0.0915375
-0.121273
-0.149187
-0.180178
-0.214197
-0.252981
-0.297236
-0.3461
-0.388865
-0.40243
-0.345901
-0.166253
0.194182
0.779456
1.60699
2.65768
3.88421
5.20582
6.55678
7.82783
9.03766
-0.0873935
-0.0699045
-0.100444
-0.131554
-0.161767
-0.196888
-0.236503
-0.283917
-0.341653
-0.411606
-0.485243
-0.541694
-0.540852
-0.429716
-0.148859
0.348084
1.08202
2.03692
3.17016
4.40275
5.67518
6.87497
8.02807
-0.0952412
-0.0721959
-0.10864
-0.140491
-0.173203
-0.212333
-0.257188
-0.312753
-0.383253
-0.473222
-0.57619
-0.673646
-0.726662
-0.683056
-0.482653
-0.0778852
0.554804
1.40201
2.42593
3.55024
4.72236
5.82992
6.9044
-0.101407
-0.073666
-0.116006
-0.148085
-0.183492
-0.226389
-0.276116
-0.339392
-0.422052
-0.53122
-0.662521
-0.800099
-0.906741
-0.931926
-0.81563
-0.509913
0.0109594
0.736056
1.6329
2.62875
3.67884
4.67315
5.64867
-0.106275
-0.0747287
-0.122545
-0.15453
-0.192723
-0.239004
-0.293153
-0.363574
-0.457637
-0.585048
-0.743653
-0.920651
-1.08117
-1.1772
-1.14968
-0.950986
-0.553473
0.0344224
0.786032
1.63315
2.53939
3.39905
4.25329
-0.110126
-0.0756507
-0.128284
-0.160051
-0.200998
-0.250216
-0.308306
-0.385218
-0.48978
-0.634274
-0.818917
-1.03438
-1.24876
-1.41742
-1.48302
-1.39892
-1.13587
-0.69987
-0.111477
0.566429
1.3062
2.00853
2.71707
-0.113157
-0.0765574
-0.133265
-0.164843
-0.208409
-0.260123
-0.321699
-0.404436
-0.518567
-0.678934
-0.888284
-1.14117
-1.40929
-1.65218
-1.815
-1.85282
-1.73514
-1.46571
-1.05881
-0.5712
-0.0214825
0.499711
1.03745
-0.115519
-0.0774908
-0.137553
-0.169061
-0.215044
-0.268879
-0.333555
-0.421521
-0.544386
-0.71955
-0.95247
-1.24197
-1.56396
-1.88297
-2.14734
-2.31459
-2.35337
-2.26527
-2.05814
-1.78174
-1.4452
-1.12802
-0.784861
-0.117362
-0.0784428
-0.141233
-0.172824
-0.221003
-0.276681
-0.344167
-0.43689
-0.56784
-0.756998
-1.01272
-1.33849
-1.71499
-2.11248
-2.4832
-2.78769
-2.99405
-3.10175
-3.11188
-3.06611
-2.96365
-2.87054
-2.74243
-0.118805
-0.0793816
-0.144371
-0.176187
-0.226341
-0.283658
-0.353724
-0.450818
-0.589333
-0.791855
-1.06983
-1.43178
-1.86368
-2.34221
-2.82408
-3.27342
-3.65791
-3.97466
-4.21752
-4.41886
-4.56739
-4.71362
-4.81547
-0.11995
-0.0802671
-0.147021
-0.179172
-0.231099
-0.289902
-0.362349
-0.463478
-0.609106
-0.824454
-1.12423
-1.52231
-2.01041
-2.57223
-3.16954
-3.77039
-4.34204
-4.87874
-5.36633
-5.82643
-6.23681
-6.63048
-6.96889
-0.120872
-0.0810634
-0.149226
-0.181785
-0.2353
-0.295452
-0.370081
-0.474911
-0.627195
-0.854804
-1.17585
-1.60981
-2.15454
-2.80131
-3.51735
-4.2749
-5.0405
-5.80472
-6.54428
-7.26842
-7.94349
-8.58359
-9.15463
-0.12163
-0.081732
-0.151022
-0.184038
-0.238983
-0.30037
-0.376989
-0.485206
-0.643684
-0.88295
-1.22459
-1.69389
-2.29514
-3.0276
-3.86428
-4.78165
-5.74487
-6.73958
-7.73196
-8.71703
-9.64967
-10.5244
-11.3123
-0.12227
-0.0822594
-0.152448
-0.185946
-0.24216
-0.304624
-0.382979
-0.494189
-0.658302
-0.90847
-1.2698
-1.77348
-2.4304
-3.24814
-4.20559
-5.28323
-6.44375
-7.66626
-8.90457
-10.1378
-11.3099
-12.3966
-13.3739
-0.122746
-0.0825912
-0.153531
-0.18757
-0.244961
-0.308458
-0.388437
-0.5024
-0.671699
-0.932062
-1.31205
-1.8488
-2.55983
-3.46115
-4.53738
-5.77248
-7.12512
-8.56593
-10.0345
-11.493
-12.8755
-14.1415
-15.2715
-0.12286
-0.0827224
-0.154012
-0.188428
-0.246417
-0.310246
-0.390897
-0.506322
-0.679067
-0.947088
-1.34215
-1.90697
-2.66585
-3.64369
-4.83162
-6.21738
-7.75481
-9.4042
-11.0889
-12.7522
-14.3192
-15.7362
-16.9839
-0.124371
-0.0834457
-0.154858
-0.189378
-0.247405
-0.310957
-0.391447
-0.50718
-0.681781
-0.95509
-1.36195
-1.95028
-2.75122
-3.79828
-5.08915
-6.6142
-8.32091
-10.1565
-12.0267
-13.8556
-15.5614
-17.0832
-18.4041
-0.125493
-0.0839979
-0.155474
-0.190139
-0.248096
-0.311368
-0.391786
-0.508087
-0.685028
-0.964188
-1.38325
-1.99463
-2.83542
-3.94619
-5.32945
-6.97574
-8.82392
-10.8063
-12.812
-14.7495
-16.5338
-18.1044
-19.4506
-0.126016
-0.084173
-0.155624
-0.190384
-0.24812
-0.311088
-0.391496
-0.508569
-0.688131
-0.97333
-1.40434
-2.03737
-2.91451
-4.08185
-5.54492
-7.29207
-9.25194
-11.3412
-13.4351
-15.4305
-17.244
-18.8191
-20.1525
-0.126198
-0.0840796
-0.155423
-0.190156
-0.247517
-0.310113
-0.390472
-0.508302
-0.690369
-0.981187
-1.42306
-2.07541
-2.98439
-4.2001
-5.72931
-7.55602
-9.59773
-11.756
-13.8952
-15.9057
-17.7085
-19.2544
-20.548
-0.126221
-0.0838373
-0.155036
-0.189631
-0.246542
-0.308754
-0.389057
-0.507602
-0.691939
-0.987752
-1.4391
-2.10803
-3.04378
-4.29903
-5.87998
-7.7645
-9.85876
-12.0505
-14.1973
-16.1877
-17.9497
-19.4436
-20.6809
-0.126165
-0.0835275
-0.154586
-0.188972
-0.24543
-0.307311
-0.387608
-0.506855
-0.693238
-0.993386
-1.45274
-2.13534
-3.09249
-4.37793
-5.99566
-7.91618
-10.0349
-12.2281
-14.3506
-16.2928
-17.9924
-19.4195
-20.5905
-0.126076
-0.0832099
-0.154153
-0.188293
-0.244348
-0.30598
-0.386338
-0.506283
-0.694484
-0.998319
-1.4642
-2.15752
-3.13054
-4.43653
-6.07586
-8.01087
-10.1275
-12.2936
-14.3647
-16.2367
-17.8577
-19.2072
-20.3052
-0.12598
-0.0829313
-0.15378
-0.187663
-0.243378
-0.304841
-0.38531
-0.505911
-0.695677
-1.00253
-1.47347
-2.17454
-3.15783
-4.47464
-6.12039
-8.04897
-10.1387
-12.252
-14.249
-16.0332
-17.5629
-18.8266
-19.8466
-0.125894
-0.0827165
-0.153478
-0.187109
-0.24255
-0.3039
-0.384491
-0.505663
-0.696704
-1.00588
-1.48043
-2.1863
-3.17426
-4.4922
-6.12945
-8.03159
-10.0715
-12.1096
-14.0134
-15.696
-17.1251
-18.2976
-19.2366
-0.125821
-0.0825705
-0.153232
-0.186625
-0.241838
-0.303098
-0.383781
-0.505387
-0.697373
-1.00816
-1.48483
-2.19254
-3.17959
-4.48907
-6.1034
-7.96029
-9.92957
-11.8732
-13.6685
-15.2391
-16.562
-17.6407
-18.4984
-0.12576
-0.0824795
-0.15301
-0.186182
-0.241197
-0.302355
-0.383063
-0.504931
-0.697502
-1.00915
-1.48646
-2.19304
-3.17364
-4.46529
-6.04294
-7.8372
-9.71748
-11.5504
-13.225
-14.6764
-15.8901
-16.8748
-17.6523
-0.125708
-0.082423
-0.152781
-0.185747
-0.24057
-0.301588
-0.382225
-0.504152
-0.696929
-1.00869
-1.48512
-2.1876
-3.15628
-4.42105
-5.94905
-7.66485
-9.43998
-11.1488
-12.6934
-14.0207
-15.1236
-16.0151
-16.7141
-0.125663
-0.0823764
-0.152517
-0.185293
-0.239913
-0.300734
-0.381188
-0.502969
-0.695569
-1.00669
-1.48076
-2.17622
-3.12764
-4.35694
-5.82324
-7.44638
-9.10238
-10.676
-12.0833
-13.283
-14.2745
-15.0736
-15.6958
-0.125622
-0.0823201
-0.152202
-0.1848
-0.239191
-0.29975
-0.379909
-0.501337
-0.693392
-1.00315
-1.47339
-2.15898
-3.08807
-4.2738
-5.66744
-7.18537
-8.71025
-10.1395
-11.4039
-12.4732
-13.3528
-14.0602
-14.6066
-0.125588
-0.0822372
-0.15183
-0.18426
-0.238392
-0.298623
-0.378379
-0.499272
-0.690436
-0.998134
-1.46316
-2.13615
-3.03811
-4.17287
-5.48402
-6.88588
-8.26955
-9.54683
-10.6638
-11.6005
-12.3675
-12.9833
-13.4545
-0.125557
-0.0821191
-0.151405
-0.183673
-0.237509
-0.297352
-0.376615
-0.496806
-0.686767
-0.991759
-1.45024
-2.10807
-2.97844
-4.05552
-5.27559
-6.55224
-7.78637
-8.90555
-9.87119
-10.6731
-11.3266
-11.8505
-12.2467
-0.125529
-0.0819602
-0.150935
-0.183045
-0.23655
-0.295957
-0.374648
-0.494003
-0.682476
-0.984165
-1.43486
-2.07513
-2.90985
-3.92336
-5.04504
-6.18902
-7.26699
-8.22311
-9.03407
-9.69905
-10.2376
-10.6688
-10.9895
-0.125502
-0.0817619
-0.150433
-0.182383
-0.235523
-0.294456
-0.372515
-0.490916
-0.677649
-0.975474
-1.4172
-2.03771
-2.83316
-3.77801
-4.79528
-5.80086
-6.71772
-7.50695
-8.16036
-8.686
-9.10779
-9.44475
-9.6888
-0.125473
-0.0815263
-0.149911
-0.181695
-0.234441
-0.292871
-0.370253
-0.487604
-0.672366
-0.965809
-1.39749
-1.99621
-2.74918
-3.62117
-4.52938
-5.39251
-6.145
-6.76471
-7.25814
-7.64196
-7.94457
-8.18498
-8.35038
-0.125437
-0.0812602
-0.149379
-0.180987
-0.233311
-0.29122
-0.367888
-0.484105
-0.666686
-0.955253
-1.37587
-1.95099
-2.65874
-3.45451
-4.25035
-4.96874
-5.5553
-6.00418
-6.33593
-6.57538
-6.75595
-6.89671
-6.98049
-0.125393
-0.0809689
-0.148843
-0.180261
-0.232145
-0.289517
-0.365442
-0.480449
-0.660646
-0.943876
-1.35248
-1.90239
-2.56262
-3.27973
-3.96123
-4.53433
-4.95528
-5.23356
-5.40285
-5.49574
-5.55106
-5.58844
-5.58679
-0.125338
-0.0806602
-0.14831
-0.179518
-0.230943
-0.287768
-0.362926
-0.476649
-0.65427
-0.931714
-1.32745
-1.85072
-2.46161
-3.09847
-3.66505
-4.09408
-4.35167
-4.46141
-4.46899
-4.41388
-4.34101
-4.271
-4.17953
-0.125266
-0.0803393
-0.147778
-0.178757
-0.229708
-0.285975
-0.360335
-0.4727
-0.647548
-0.918781
-1.30084
-1.79627
-2.35644
-2.91236
-3.36474
-3.65271
-3.7513
-3.69674
-3.54543
-3.34248
-3.13934
-2.95842
-2.77274
-0.12517
-0.080004
-0.14724
-0.177967
-0.22843
-0.284129
-0.357662
-0.468582
-0.640464
-0.905068
-1.27273
-1.73931
-2.24784
-2.72295
-3.0632
-3.21489
-3.16106
-2.94898
-2.64447
-2.29656
-1.96304
-1.66975
-1.38648
-0.124962
-0.0796533
-0.146674
-0.177132
-0.227096
-0.282208
-0.354875
-0.464286
-0.633091
-0.890937
-1.24416
-1.68234
-2.14096
-2.53954
-2.77543
-2.80262
-2.61102
-2.25698
-1.81398
-1.33369
-0.877065
-0.479054
-0.100055
-0.125082
-0.0794484
-0.146257
-0.176359
-0.225754
-0.280185
-0.35187
-0.459666
-0.625423
-0.876938
-1.21716
-1.63039
-2.04612
-2.38031
-2.53013
-2.45669
-2.15553
-1.68971
-1.13698
-0.55451
0.00478877
0.484471
0.944109
-0.125166
-0.0791952
-0.145814
-0.175522
-0.224318
-0.277989
-0.348578
-0.454671
-0.617491
-0.863397
-1.19271
-1.58569
-1.96746
-2.25174
-2.3363
-2.18806
-1.80736
-1.26242
-0.630082
0.0191285
0.654635
1.1908
1.70778
-0.125208
-0.0788871
-0.145323
-0.174589
-0.222728
-0.275523
-0.344851
-0.449086
-0.609002
-0.849867
-1.17001
-1.54661
-1.90161
-2.14722
-2.18239
-1.97838
-1.54006
-0.94015
-0.250097
0.440221
1.12853
1.70258
2.25847
-0.125253
-0.0785491
-0.144791
-0.173548
-0.220954
-0.272728
-0.340607
-0.44282
-0.599839
-0.836158
-1.1486
-1.51194
-1.8458
-2.06128
-2.05877
-1.81256
-1.33184
-0.693058
0.0389602
0.757252
1.479
2.08012
2.6625
-0.12531
-0.0781903
-0.144208
-0.172382
-0.218965
-0.269569
-0.335817
-0.435862
-0.590022
-0.822269
-1.12829
-1.481
-1.79822
-1.99016
-1.95878
-1.68018
-1.16774
-0.500086
0.261886
1.00432
1.74566
2.36822
2.96851
-0.125375
-0.0778092
-0.143576
-0.171106
-0.216798
-0.266122
-0.330629
-0.428459
-0.579902
-0.808613
-1.10941
-1.45371
-1.75793
-1.93148
-1.87788
-1.57413
-1.03761
-0.347275
0.435449
1.20133
1.95454
2.59499
3.20606
-0.125422
-0.0773984
-0.142872
-0.1697
-0.214427
-0.262366
-0.325036
-0.420632
-0.569532
-0.795251
-1.09195
-1.42986
-1.7243
-1.88391
-1.81373
-1.49098
-0.936772
-0.228704
0.567447
1.3542
2.11656
2.77031
3.38545
-0.125519
-0.0769898
-0.142175
-0.168271
-0.212004
-0.258505
-0.319296
-0.412672
-0.559157
-0.782204
-1.0754
-1.40786
-1.69394
-1.84158
-1.75729
-1.41842
-0.849616
-0.126399
0.679731
1.48355
2.25536
2.91878
3.53409
-0.125482
-0.0764622
-0.141257
-0.166544
-0.209175
-0.254112
-0.312901
-0.403946
-0.54791
-0.768151
-1.05764
-1.3845
-1.66234
-1.79883
-1.70237
-1.3509
-0.772283
-0.040016
0.76999
1.58082
2.35854
3.02272
3.6301
-0.125453
-0.0759442
-0.140328
-0.164806
-0.206336
-0.249739
-0.30661
-0.395483
-0.537145
-0.754815
-1.04078
-1.36212
-1.63181
-1.75746
-1.64949
-1.28688
-0.700605
0.0373343
0.84842
1.65898
2.43968
3.10055
3.69478
-0.125442
-0.075454
-0.139427
-0.163121
-0.203593
-0.245549
-0.30066
-0.387606
-0.527283
-0.742703
-1.02537
-1.34124
-1.60256
-1.71688
-1.59657
-1.22206
-0.627341
0.116239
0.929078
1.7367
2.51858
3.17728
3.75724
-0.12543
-0.0749718
-0.138537
-0.161477
-0.200936
-0.241531
-0.295026
-0.380242
-0.518149
-0.731468
-1.01083
-1.32092
-1.57322
-1.6752
-1.54109
-1.15304
-0.548003
0.202528
1.01911
1.8238
2.60543
3.26541
3.83399
-0.125415
-0.0744919
-0.137659
-0.15987
-0.198355
-0.237658
-0.289637
-0.373237
-0.509435
-0.720568
-0.996287
-1.29997
-1.54224
-1.63061
-1.48122
-1.07808
-0.460895
0.297943
1.12019
1.92306
2.70344
3.36778
3.93077
-0.125398
-0.0740154
-0.136796
-0.158304
-0.195846
-0.233908
-0.284432
-0.36645
-0.500878
-0.709566
-0.981109
-1.27751
-1.50863
-1.58216
-1.41625
-0.996936
-0.366496
0.401361
1.23028
2.03242
2.81005
3.48004
4.04263
-0.125385
-0.0735469
-0.135954
-0.15678
-0.193404
-0.230261
-0.279362
-0.359782
-0.492308
-0.698212
-0.964975
-1.25323
-1.47216
-1.52984
-1.34664
-0.910909
-0.267212
0.509142
1.3441
2.1453
2.91754
3.5909
4.15511
-0.125374
-0.073086
-0.135133
-0.155296
-0.191017
-0.226693
-0.274375
-0.353147
-0.4836
-0.686354
-0.947751
-1.22707
-1.43297
-1.47417
-1.27351
-0.821985
-0.166305
0.616461
1.45476
2.25289
3.01504
3.68599
4.24921
-0.125364
-0.0726322
-0.134331
-0.153842
-0.188672
-0.223176
-0.269428
-0.346481
-0.474677
-0.673936
-0.929445
-1.1992
-1.39146
-1.41593
-1.19821
-0.732293
-0.067017
0.718639
1.55573
2.34671
3.09281
3.75273
4.30869
-0.125351
-0.0721814
-0.133541
-0.152409
-0.186351
-0.219683
-0.264482
-0.339732
-0.465492
-0.660935
-0.910108
-1.16978
-1.34804
-1.35581
-1.12183
-0.643402
0.0284052
0.812569
1.64281
2.42148
3.14505
3.78486
4.32531
-0.125333
-0.071732
-0.132758
-0.150986
-0.184041
-0.216197
-0.259512
-0.33288
-0.456039
-0.647397
-0.889871
-1.13908
-1.3031
-1.29441
-1.04518
-0.556308
0.118795
0.896975
1.71463
2.47581
3.17154
3.78331
4.3004
-0.125306
-0.0712803
-0.131976
-0.149567
-0.181731
-0.212703
-0.254506
-0.325917
-0.446337
-0.633381
-0.868865
-1.10733
-1.25698
-1.23212
-0.968682
-0.471307
0.204145
0.972429
1.77255
2.51204
3.17643
3.75525
4.24308
-0.125273
-0.0708268
-0.131194
-0.148146
-0.179417
-0.209197
-0.249463
-0.318862
-0.436432
-0.618997
-0.847275
-1.07478
-1.21002
-1.1693
-0.892593
-0.388386
0.285045
1.04053
1.81953
2.53468
3.16684
3.71093
4.1667
-0.12523
-0.0703704
-0.130406
-0.146721
-0.177095
-0.20568
-0.244392
-0.311735
-0.426379
-0.604336
-0.825249
-1.04166
-1.16248
-1.10618
-0.816991
-0.307258
0.362481
1.10342
1.85929
2.54918
3.15023
3.66109
4.08497
-0.125181
-0.0699134
-0.129615
-0.145289
-0.174767
-0.202155
-0.239307
-0.304573
-0.416241
-0.589513
-0.80296
-1.0082
-1.11463
-1.04305
-0.742028
-0.227751
0.437265
1.16296
1.89515
2.56022
3.1331
3.61421
4.0089
-0.125124
-0.0694561
-0.128817
-0.143853
-0.172435
-0.19863
-0.234221
-0.297399
-0.406069
-0.574598
-0.780509
-0.974521
-1.06664
-0.980072
-0.66779
-0.149709
0.510019
1.22057
1.92957
2.57122
3.11937
3.57542
3.9449
-0.12506
-0.0690012
-0.128015
-0.142414
-0.170104
-0.195111
-0.229151
-0.290247
-0.395909
-0.559669
-0.758
-0.940775
-1.01869
-0.917475
-0.594492
-0.0732384
0.580863
1.27678
1.9637
2.58358
3.11048
3.5458
3.89438
-0.124987
-0.0685487
-0.127209
-0.140973
-0.167773
-0.191605
-0.224105
-0.283129
-0.385783
-0.544742
-0.735447
-0.906977
-0.970835
-0.85534
-0.522258
0.00152298
0.649657
1.33152
1.99753
2.59708
3.10512
3.52316
3.85438
-0.124908
-0.0681006
-0.126398
-0.13953
-0.165449
-0.188115
-0.219094
-0.276064
-0.375708
-0.529839
-0.712868
-0.873146
-0.923109
-0.793778
-0.451297
0.0742356
0.715869
1.384
2.02995
2.60983
3.10035
3.50282
3.81904
-0.124819
-0.0676558
-0.125582
-0.138089
-0.16313
-0.184645
-0.21412
-0.269048
-0.365676
-0.514922
-0.690194
-0.839186
-0.875419
-0.732745
-0.381681
0.144631
0.778905
1.43313
2.05926
2.61929
3.09202
3.47917
3.78126
-0.124722
-0.0672154
-0.124763
-0.136647
-0.160819
-0.181196
-0.209186
-0.262085
-0.355675
-0.499969
-0.667375
-0.805023
-0.8277
-0.672238
-0.313545
0.212337
0.837994
1.47752
2.08333
2.6224
3.07609
3.44666
3.73431
-0.124613
-0.0667775
-0.123936
-0.135207
-0.158514
-0.177768
-0.204289
-0.255159
-0.345677
-0.484909
-0.644295
-0.770502
-0.779782
-0.612127
-0.246886
0.277114
0.892507
1.51591
2.10018
2.61653
3.04895
3.40099
3.67304
-0.124495
-0.0663426
-0.123104
-0.133766
-0.156217
-0.17436
-0.199426
-0.248267
-0.335659
-0.469703
-0.620883
-0.735525
-0.731568
-0.552372
-0.18179
0.338656
0.941788
1.54708
2.10807
2.59952
3.00836
3.33952
3.59451
-0.124363
-0.0659084
-0.122264
-0.132325
-0.153924
-0.17097
-0.194591
-0.241388
-0.325584
-0.454274
-0.597024
-0.699945
-0.682907
-0.49286
-0.11825
0.3968
0.98542
1.57026
2.10588
2.57029
2.95324
3.26152
3.49811
-0.124221
-0.0654753
-0.121416
-0.130883
-0.151637
-0.167596
-0.18978
-0.234518
-0.315432
-0.438593
-0.57267
-0.663708
-0.633768
-0.433623
-0.05639
0.451298
1.02302
1.58494
2.09308
2.52852
2.88403
3.16801
3.38533
-0.124064
-0.0650412
-0.120558
-0.12944
-0.149352
-0.164236
-0.184988
-0.227637
-0.305173
-0.422599
-0.547743
-0.626736
-0.584096
-0.374659
0.00372133
0.502024
1.05449
1.59106
2.06985
2.47501
2.80217
3.06131
3.25913
-0.123896
-0.0646068
-0.119692
-0.127994
-0.147071
-0.160889
-0.180213
-0.220745
-0.294796
-0.406286
-0.522245
-0.589061
-0.533986
-0.316141
0.0618599
0.548762
1.07973
1.58884
2.03692
2.41114
2.71
2.94461
3.12329
-0.123711
-0.0641703
-0.118814
-0.126545
-0.14479
-0.157551
-0.175447
-0.213824
-0.28428
-0.389623
-0.496153
-0.550695
-0.483514
-0.258221
0.11784
0.591414
1.0989
1.57889
1.99548
2.33889
2.61018
2.82129
2.98174
-0.123513
-0.0637327
-0.117926
-0.125093
-0.14251
-0.154223
-0.170692
-0.206879
-0.273629
-0.372629
-0.469522
-0.511763
-0.432903
-0.201212
0.171332
0.62979
1.11217
1.56192
1.94693
2.26033
2.50546
2.69463
2.83812
-0.123297
-0.0632926
-0.117026
-0.123637
-0.140228
-0.150902
-0.165942
-0.199898
-0.262834
-0.355299
-0.442378
-0.472361
-0.382346
-0.145394
0.222072
0.663823
1.11988
1.53888
1.89283
2.1776
2.39836
2.56744
2.69549
-0.123066
-0.0628514
-0.116115
-0.122175
-0.137946
-0.147589
-0.1612
-0.19289
-0.251907
-0.337675
-0.414822
-0.432686
-0.332158
-0.0911673
0.269691
0.693377
1.12236
1.51068
1.83466
2.09257
2.29104
2.44202
2.55621
-0.122815
-0.0624076
-0.11519
-0.120709
-0.13566
-0.14428
-0.15646
-0.185846
-0.240848
-0.31977
-0.386913
-0.392885
-0.282595
-0.0388554
0.313927
0.718455
1.12006
1.47831
1.77378
2.00686
2.18516
2.32005
2.42193
-0.122548
-0.0619629
-0.114253
-0.119235
-0.133372
-0.140978
-0.151727
-0.178775
-0.229675
-0.301641
-0.358779
-0.353193
-0.234005
0.0111375
0.35446
0.739018
1.1134
1.44261
1.71134
1.92168
2.08188
2.20255
2.2936
-0.122256
-0.0615159
-0.113301
-0.117756
-0.131077
-0.137678
-0.146995
-0.171672
-0.218394
-0.28331
-0.330496
-0.313778
-0.186654
0.0585207
0.391116
0.755166
1.10285
1.40438
1.64826
1.83793
1.98195
2.09007
2.17163
-0.121946
-0.0610681
-0.112334
-0.116267
-0.128778
-0.134382
-0.142266
-0.164546
-0.207023
-0.264838
-0.302196
-0.274873
-0.140865
0.102963
0.423696
0.766966
1.0888
1.36425
1.58524
1.7562
1.88577
1.98282
2.05606
-0.12161
-0.060618
-0.111351
-0.114771
-0.126471
-0.131086
-0.137541
-0.157395
-0.195574
-0.24626
-0.273969
-0.236648
-0.0968634
0.144266
0.452158
0.774605
1.07166
1.32275
1.52273
1.67679
1.79345
1.88072
1.94667
-0.121251
-0.0601674
-0.110351
-0.113262
-0.124152
-0.127785
-0.132806
-0.150211
-0.184046
-0.227612
-0.245918
-0.199295
-0.0548936
0.182224
0.476451
0.778235
1.05174
1.28025
1.46104
1.59983
1.7049
1.78349
1.843
-0.120869
-0.0597144
-0.109333
-0.111747
-0.121829
-0.124493
-0.128091
-0.143034
-0.17251
-0.209003
-0.218213
-0.163047
-0.0152091
0.216666
0.496574
0.778018
1.02926
1.23691
1.40026
1.52523
1.61987
1.69068
1.74449
-0.12048
-0.05927
-0.108295
-0.11019
-0.11943
-0.121083
-0.123202
-0.135619
-0.160692
-0.190201
-0.190735
-0.127951
0.0220042
0.247366
0.512378
0.773904
1.00426
1.19276
1.34028
1.45284
1.53807
1.60188
1.65057
-0.120242
-0.0588569
-0.107285
-0.108595
-0.116885
-0.117407
-0.11792
-0.127681
-0.148269
-0.170908
-0.163427
-0.0945
0.055431
0.272249
0.521325
0.763427
0.974704
1.14667
1.2812
1.38403
1.46229
1.52126
1.56685
-0.119396
-0.0579476
-0.105521
-0.106137
-0.113275
-0.112451
-0.111053
-0.117755
-0.133469
-0.149283
-0.134983
-0.062731
0.0829895
0.28702
0.517137
0.738882
0.931917
1.08947
1.21363
1.30947
1.3833
1.43969
1.48397
-0.118642
-0.0570739
-0.10371
-0.103595
-0.109522
-0.10735
-0.10404
-0.107623
-0.118321
-0.12723
-0.106422
-0.0317255
0.108497
0.298635
0.509219
0.71057
0.885557
1.02889
1.14267
1.23134
1.30029
1.35336
1.39554
-0.118045
-0.0563492
-0.102044
-0.101246
-0.106046
-0.10271
-0.0977316
-0.0984232
-0.104223
-0.10622
-0.0788834
-0.00175612
0.133014
0.309536
0.501063
0.682346
0.839252
0.967853
1.07029
1.15055
1.21334
1.26189
1.3009
-0.117422
-0.0556568
-0.100397
-0.0989942
-0.102785
-0.0985064
-0.0921459
-0.0902236
-0.0913703
-0.0867558
-0.0534912
0.025068
0.153137
0.314844
0.486345
0.646633
0.784529
0.897327
0.987297
1.05806
1.11383
1.15728
1.1927
-0.116672
-0.0549099
-0.0986441
-0.0966804
-0.099535
-0.0944657
-0.0869145
-0.082582
-0.0794039
-0.0689222
-0.0312954
0.0462351
0.164662
0.308777
0.458072
0.595786
0.713519
0.809684
0.886567
0.947388
0.995817
1.03398
1.06566
-0.115765
-0.0540828
-0.096719
-0.0942183
-0.0961527
-0.0903673
-0.0817235
-0.0751242
-0.0680285
-0.0527465
-0.0128692
0.0605976
0.16613
0.289945
0.415303
0.529494
0.626654
0.706059
0.76985
0.820729
0.861746
0.8945
0.922269
-0.114703
-0.0531754
-0.0945976
-0.0915692
-0.0925795
-0.0861242
-0.0764589
-0.0677499
-0.0572378
-0.0383595
0.00168852
0.0685252
0.158963
0.261251
0.362511
0.453708
0.531083
0.594545
0.645949
0.687448
0.721442
0.749024
0.772943
-0.113469
-0.0521785
-0.0922557
-0.0887143
-0.08879
-0.0817115
-0.0711131
-0.0605057
-0.0471636
-0.0258825
0.0126399
0.0712606
0.145973
0.227378
0.306201
0.376518
0.436208
0.48557
0.526126
0.559439
0.587309
0.610336
0.630753
-0.112045
-0.0510788
-0.0896725
-0.0856336
-0.0847744
-0.077132
-0.0657186
-0.0534874
-0.0379651
-0.0153847
0.0204155
0.0702687
0.130086
0.192829
0.252359
0.305125
0.350182
0.387964
0.419628
0.446188
0.468909
0.488022
0.50525
-0.110398
-0.0498526
-0.0868212
-0.0823141
-0.0805272
-0.0723915
-0.060307
-0.0467728
-0.0297425
-0.00681819
0.0255692
0.0669739
0.113777
0.161081
0.205162
0.244152
0.277742
0.306392
0.330858
0.351791
0.369994
0.385539
0.399663
-0.108507
-0.0484814
-0.083686
-0.0787487
-0.0760596
-0.0675127
-0.054919
-0.0404281
-0.0225336
-2.13841e-05
0.0287245
0.0626266
0.0988003
0.134104
0.166446
0.195015
0.219804
0.241227
0.259779
0.275872
0.290025
0.302234
0.313387
-0.106336
-0.0469391
-0.0802502
-0.0749454
-0.0713956
-0.0625271
-0.0495951
-0.0344936
-0.0163065
0.00525204
0.0304738
0.0580778
0.0859767
0.112265
0.135927
0.15669
0.174767
0.19047
0.204203
0.216196
0.226843
0.236078
0.244574
-0.103871
-0.0452117
-0.0765156
-0.0709232
-0.0665759
-0.0574794
-0.0443797
-0.028997
-0.0109998
0.00923444
0.0311932
0.0536417
0.0751837
0.0947799
0.112051
0.127056
0.140088
0.151436
0.161408
0.170173
0.178004
0.18485
0.191185
-0.101078
-0.0432769
-0.0724859
-0.0667179
-0.0616527
-0.0524212
-0.0393231
-0.0239735
-0.00658464
0.0120334
0.0309576
0.0491353
0.0657375
0.0803349
0.0929409
0.103791
0.113209
0.121448
0.128746
0.135225
0.141072
0.146246
0.151082
-0.097951
-0.0411344
-0.0681891
-0.0623741
-0.056688
-0.0474167
-0.0344996
-0.0195065
-0.00311724
0.0136035
0.0296369
0.0441762
0.0568607
0.0676665
0.0768431
0.0846969
0.0915383
0.0975758
0.10299
0.107862
0.112321
0.116329
0.120128
-0.0944628
-0.038774
-0.0636543
-0.0579517
-0.0517573
-0.0425559
-0.0300346
-0.0157497
-0.000743799
0.0138485
0.0271086
0.0385395
0.0480942
0.0560176
0.0626485
0.0683252
0.0733025
0.0777643
0.0818259
0.0855544
0.0890181
0.0921959
0.0952487
-0.090625
-0.0362161
-0.0589373
-0.0535158
-0.0469527
-0.0379693
-0.0261138
-0.0129199
0.000373719
0.0127133
0.023416
0.0322651
0.0394207
0.0452397
0.0500855
0.0542659
0.0579898
0.0613943
0.0645563
0.0675142
0.0703074
0.072911
0.075448
-0.0864275
-0.0334719
-0.0540902
-0.0491483
-0.0423951
-0.0338336
-0.0229672
-0.0112348
0.000113361
0.0102144
0.0186523
0.0254198
0.0307786
0.0350961
0.0387045
0.0418581
0.0447193
0.0473852
0.0499062
0.0523019
0.0545956
0.0567619
0.0588986
-0.081909
-0.0305894
-0.049189
-0.0449368
-0.038226
-0.0303404
-0.0207963
-0.0108235
-0.00153328
0.00644604
0.0129165
0.0180009
0.0219865
0.0252052
0.0279356
0.0303806
0.0326625
0.0348482
0.0369662
0.0390206
0.0410197
0.0429343
0.0448394
-0.0770912
-0.0276081
-0.0442995
-0.0409762
-0.0345821
-0.0276278
-0.0196608
-0.0116023
-0.00432778
0.00174517
0.00657558
0.0103435
0.013324
0.0157883
0.0179544
0.0199671
0.0219096
0.0238163
0.0256967
0.0275397
0.0293434
0.031076
0.0327963
-0.0720427
-0.0246001
-0.0394975
-0.0373373
-0.0315356
-0.0256833
-0.0193798
-0.0131802
-0.00770565
-0.00321146
0.000341763
0.00314011
0.00541331
0.00736732
0.00915719
0.0108789
0.0125812
0.0142771
0.0159624
0.0176194
0.0192402
0.0207951
0.0223292
-0.0668227
-0.0216277
-0.0348262
-0.034033
-0.0290427
-0.0243069
-0.0195412
-0.0149487
-0.0109255
-0.00762657
-0.00499311
-0.00286715
-0.00107457
0.000531832
0.00205594
0.00355731
0.00506086
0.00656653
0.00806308
0.00953118
0.0109607
0.0123271
0.0136639
-0.0615107
-0.0187642
-0.0302968
-0.030992
-0.0269369
-0.0231866
-0.0196835
-0.0163589
-0.0134226
-0.0109777
-0.00897752
-0.00730745
-0.00584349
-0.00448691
-0.0031698
-0.00185842
-0.000540993
0.000775217
0.00207836
0.00334998
0.00458153
0.00575372
0.00689144
-0.056176
-0.0160572
-0.0258729
-0.0280588
-0.0250031
-0.02205
-0.0195126
-0.0171558
-0.0150353
-0.0132121
-0.0116611
-0.0103062
-0.00906686
-0.00787957
-0.00670566
-0.00552837
-0.00434797
-0.00317453
-0.00202255
-0.000906963
0.000162585
0.0011738
0.00214242
-0.0508501
-0.0135394
-0.0214689
-0.0250365
-0.0230314
-0.0207356
-0.0189325
-0.0173529
-0.0159221
-0.0146585
-0.0135477
-0.0125456
-0.0116008
-0.0106751
-0.00974597
-0.00880719
-0.00786264
-0.00692337
-0.00600148
-0.00510945
-0.00425447
-0.00344539
-0.00267143
-0.0455586
-0.0112139
-0.016999
-0.0217099
-0.0208068
-0.0190749
-0.0177891
-0.0167708
-0.0158556
-0.0150109
-0.0142223
-0.013469
-0.0127246
-0.0119722
-0.0112031
-0.0104204
-0.00963145
-0.00884845
-0.00808208
-0.00734311
-0.00663709
-0.00597021
-0.00533587
-0.0402019
-0.00898853
-0.0123058
-0.0177853
-0.0180149
-0.0168185
-0.0158868
-0.0152549
-0.0147358
-0.0142516
-0.0137724
-0.0132861
-0.0127794
-0.012248
-0.0116907
-0.0111146
-0.0105277
-0.00994132
-0.00936411
-0.00880466
-0.00826723
-0.00775596
-0.00726744
-0.0347651
-0.00693704
-0.00747255
-0.013159
-0.014452
-0.013778
-0.0130466
-0.0125775
-0.0122417
-0.011944
-0.0116353
-0.0113041
-0.010941
-0.0105501
-0.0101328
-0.00969918
-0.00925486
-0.00881051
-0.00837082
-0.00794323
-0.00752891
-0.00713192
-0.00674908
-0.0281009
-0.00380631
-0.00161532
-0.00689944
-0.00910455
-0.00908396
-0.0086932
-0.00851124
-0.00851002
-0.00859401
-0.00868366
-0.00874737
-0.00876239
-0.00873037
-0.00864969
-0.00853202
-0.00838175
-0.00821093
-0.00802316
-0.0078272
-0.00762386
-0.00741883
-0.00720973
-0.0197604
-0.00360521
0.00105407
-0.00200201
-0.00415946
-0.00448365
-0.00413776
-0.00379286
-0.00357992
-0.00349207
-0.00346804
-0.00347764
-0.00348237
-0.00347443
-0.00343705
-0.00337447
-0.00328011
-0.00316157
-0.0030155
-0.00284901
-0.00265959
-0.0024536
-0.00222863
0.185982
0.181393
0.207866
0.247239
0.285703
0.320911
0.352899
0.378716
0.405157
0.443401
0.517963
0.661292
0.918449
1.33891
1.96996
2.84187
3.95659
5.28115
6.75553
8.29472
9.82466
11.2499
12.5699
0.180425
0.182367
0.205675
0.243546
0.282817
0.321622
0.360555
0.399749
0.447072
0.516691
0.634575
0.835762
1.16561
1.67267
2.40053
3.37427
4.58937
6.00728
7.56243
9.16815
10.7469
12.2092
13.5468
0.173104
0.180671
0.201517
0.23755
0.277615
0.320158
0.366783
0.420149
0.489402
0.590874
0.751534
1.00767
1.40407
1.98744
2.79755
3.85475
5.14931
6.6384
8.25286
9.90528
11.5164
13.0023
14.3489
0.163845
0.175415
0.194468
0.228333
0.268824
0.314785
0.36897
0.436149
0.526802
0.658778
0.859579
1.16564
1.62041
2.26804
3.14448
4.26598
5.61899
7.15805
8.81217
10.4943
12.1245
13.6237
14.9734
0.152498
0.165682
0.183424
0.214774
0.254915
0.303401
0.364031
0.443327
0.552997
0.711879
0.947557
1.29582
1.79819
2.49589
3.42128
4.58732
5.97812
7.54734
9.2241
10.9228
12.5637
14.0715
15.4226
0.138592
0.150615
0.167113
0.195581
0.23423
0.283737
0.348775
0.437226
0.561833
0.742024
1.00512
1.38575
1.92319
2.65562
3.61209
4.80294
6.21117
7.79109
9.47374
11.1765
12.8208
14.335
15.69
0.120651
0.129517
0.144323
0.169394
0.205167
0.253743
0.320566
0.414535
0.549245
0.744531
1.02735
1.43113
1.99295
2.74807
3.72251
4.92427
6.3355
7.91151
9.58575
11.2791
12.9155
14.4274
15.7828
0.0956326
0.101506
0.113576
0.134043
0.164975
0.209875
0.274909