/*--------------------------------*- C++ -*----------------------------------*\
  =========                 |
  \\      /  F ield         | OpenFOAM: The Open Source CFD Toolbox
   \\    /   O peration     | Website:  https://openfoam.org
    \\  /    A nd           | Version:  7
     \\/     M anipulation  |
\*---------------------------------------------------------------------------*/
FoamFile
{
    version     2.0;
    format      ascii;
    class       surfaceScalarField;
    location    "42";
    object      phi;
}
// * * * * * * * * * * * * * * * * * * * * * * * * * * * * * * * * * * * * * //

dimensions      [0 3 -1 0 0 0 0];

internalField   nonuniform List<scalar> 
25449
(
70.9665
28.4412
-2.87716
52.5275
20.627
-2.18807
39.0927
15.1022
-1.6673
29.2225
11.142
-1.27177
21.9227
8.27101
-0.971214
16.4952
6.17019
-0.742671
12.4428
4.62112
-0.568727
9.40712
3.47185
-0.4362
7.12724
2.615
-0.335109
5.41151
1.97363
-0.257899
4.11831
1.49203
-0.198842
3.14247
1.12944
-0.153595
2.4055
0.855822
-0.118858
1.8487
0.648927
-0.092128
1.428
0.492206
-0.0715044
1.11023
0.373318
-0.0555456
0.870351
0.283041
-0.0431642
0.689424
0.214462
-0.0335347
0.553081
0.162375
-0.0260317
0.450415
0.122845
-0.0201791
0.373153
0.0928779
-0.0156151
0.315015
0.070192
-0.0120545
0.0530266
-0.00929689
0.271285
57.7639
48.6858
43.0046
35.3864
32.1564
25.9503
24.1305
19.1679
18.1615
14.24
13.7041
10.6276
10.3647
7.96052
7.85657
5.97994
5.96913
4.50244
4.54655
3.39621
3.47305
2.56554
2.66223
1.94026
2.04945
1.4686
1.5862
1.11218
1.23601
0.842398
0.971381
0.637948
0.771536
0.482886
0.620741
0.365257
0.507053
0.276063
0.421404
0.208494
0.356911
0.157371
0.308353
0.11875
0.0895759
0.271803
45.8796
64.197
34.4086
46.8574
25.8809
34.4781
19.5147
25.5341
14.7466
19.0081
11.1665
14.2078
8.47299
10.654
6.4435
8.00944
4.91243
6.03351
3.75625
4.55239
2.88248
3.4393
2.22176
2.60098
1.72195
1.96841
1.34383
1.4903
1.05782
1.12841
0.841577
0.854187
0.678207
0.646256
0.554884
0.488581
0.461868
0.369079
0.391757
0.278605
0.338935
0.210193
0.299138
0.158547
0.119551
0.269163
36.025
75.7641
27.2892
55.5933
20.6881
41.0791
15.6979
30.5243
11.9243
22.7817
9.06985
17.0622
6.91027
12.8136
5.27606
9.64365
4.03916
7.27041
3.10276
5.48879
2.39371
4.14835
1.85672
3.13797
1.45
2.37512
1.14199
1.79831
0.908822
1.36158
0.732412
1.0306
0.599053
0.779615
0.498327
0.589307
0.42231
0.445096
0.364977
0.335938
0.321751
0.253419
0.289162
0.191136
0.144119
0.264594
28.201
84.1553
21.6557
62.1386
16.5902
46.1446
12.6922
34.4223
9.70499
25.7689
7.42286
19.3443
5.68328
14.5531
4.35945
10.9675
3.35318
8.27668
2.58889
6.25308
2.00868
4.72855
1.56839
3.57827
1.23437
2.70914
0.981072
2.0516
0.789102
1.55355
0.64372
1.17598
0.533719
0.889616
0.450566
0.67246
0.387759
0.507902
0.34035
0.383347
0.304576
0.289193
0.277582
0.21813
0.164488
0.257213
22.1414
90.0353
17.3147
66.9653
13.4453
50.014
10.3927
37.475
8.01108
28.1505
6.16764
21.1878
4.74888
15.9719
3.66144
12.0549
2.83042
9.10771
2.19666
6.88684
1.71404
5.21117
1.34688
3.94543
1.06778
2.98825
0.85577
2.26361
0.694846
1.71448
0.572811
1.29801
0.48036
0.982068
0.410388
0.742432
0.357476
0.560814
0.317491
0.423332
0.287284
0.319399
0.26447
0.240944
0.18172
0.247237
17.5213
93.9489
14.0269
70.4598
11.0762
52.9647
8.66769
39.8835
6.74421
30.0739
5.23067
22.7013
4.05198
17.1506
3.14074
12.9662
2.43993
9.80852
1.90292
7.42385
1.49248
5.62161
1.17934
4.25857
0.940723
3.22686
0.759093
2.44524
0.620975
1.85259
0.516053
1.40294
0.436434
1.06169
0.376076
0.802789
0.330363
0.606527
0.295766
0.45793
0.269594
0.345571
0.249802
0.260736
0.196687
0.234835
14.0295
96.3281
11.5623
72.9269
9.3122
55.2148
7.38982
41.8059
5.80906
31.6547
4.54047
23.9699
3.53891
18.1522
2.75701
13.748
2.1514
10.4141
1.68491
7.89034
1.32694
5.97958
1.05296
4.53255
0.843647
3.43617
0.683953
2.60494
0.562257
1.97429
0.469618
1.49557
0.399176
1.13213
0.345669
0.856296
0.305064
0.647132
0.274274
0.48872
0.250943
0.368902
0.23327
0.278409
0.210068
0.219889
11.3489
100.455
8.39542
75.8804
6.25648
57.3538
4.69306
43.3693
3.54142
32.8063
2.6879
24.8234
2.05224
18.7878
1.57699
14.2233
1.22054
10.7706
0.952489
8.1584
0.750439
6.18163
0.597828
4.68516
0.482359
3.55164
0.394869
2.69243
0.328515
2.04064
0.27816
1.54593
0.239936
1.17035
0.210919
0.885314
0.188891
0.669159
0.172171
0.505439
0.159482
0.381592
0.149857
0.288034
0.217373
0.142552
8.89239
103.686
6.58318
78.1896
4.91199
59.025
3.69129
44.59
2.79256
33.7051
2.12676
25.4892
1.63106
19.2835
1.26055
14.5938
0.982688
11.0484
0.773723
8.36736
0.616173
6.33918
0.497109
4.80423
0.406939
3.64181
0.338525
2.76084
0.286539
2.09263
0.246988
1.58548
0.216869
1.20047
0.193916
0.908267
0.176413
0.686662
0.163064
0.518789
0.152881
0.391775
0.145119
0.295797
0.22329
0.139202
6.96841
106.202
5.16874
79.9893
3.86537
60.3283
2.91289
45.5425
2.21132
34.4066
1.69141
26.0091
1.30424
19.6707
1.01477
14.8833
0.797641
11.2656
0.634283
8.53072
0.511047
6.46242
0.417827
4.89744
0.347131
3.7125
0.293384
2.81459
0.252429
2.13359
0.221157
1.61675
0.197234
1.22439
0.178903
0.926598
0.164838
0.700726
0.154038
0.529588
0.145743
0.40007
0.139379
0.302161
0.228171
0.134497
5.46661
108.149
4.0693
81.3866
3.05439
61.3432
2.31103
46.2858
1.76247
34.9552
1.35535
26.4163
1.05182
19.9742
0.82468
15.1104
0.654156
11.4361
0.525754
8.65912
0.428784
6.55939
0.355327
4.9709
0.299503
3.76833
0.256939
2.85715
0.224378
2.16615
0.199388
1.64174
0.18015
1.24363
0.165297
0.941451
0.153805
0.712219
0.144902
0.53849
0.138002
0.406971
0.132662
0.3075
0.232301
0.128533
4.29792
109.644
3.21782
82.4667
2.42845
62.1326
1.84743
46.8669
1.41695
35.3857
1.09647
26.7367
0.856949
20.2137
0.677357
15.29
0.542312
11.5711
0.440468
8.76097
0.363425
6.63643
0.304939
5.02939
0.260366
3.8129
0.226247
2.89127
0.200009
2.19238
0.179737
1.66201
0.164002
1.25937
0.151737
0.953715
0.142148
0.721808
0.134638
0.546
0.128754
0.412855
0.124154
0.312101
0.235892
0.120563
3.39814
110.779
2.56642
83.2984
1.95179
62.7472
1.49539
47.3233
1.15487
35.7262
0.899983
26.9916
0.708677
20.405
0.564759
15.4339
0.456245
11.6796
0.374212
8.843
0.312002
6.69864
0.264638
5.07675
0.228404
3.84914
0.200526
2.91915
0.178945
2.21397
0.162128
1.67883
0.148942
1.27255
0.138545
0.964112
0.130314
0.730039
0.123786
0.552527
0.118609
0.418032
0.114515
0.316194
0.23912
0.111287
2.69235
111.624
2.05888
83.9319
1.58217
63.2239
1.22316
47.6823
0.952341
35.997
0.747918
27.196
0.593497
20.5595
0.476745
15.5507
0.388362
11.768
0.321316
8.91005
0.270301
6.74966
0.231311
5.11574
0.201339
3.87911
0.178133
2.94236
0.160019
2.23208
0.145758
1.69309
0.134439
1.28387
0.125394
0.973157
0.118132
0.737301
0.112292
0.558367
0.107601
0.422724
0.103848
0.319946
0.242109
0.100859
2.15543
112.239
1.67666
84.4106
1.30584
63.5948
1.0205
47.9676
0.801769
36.2157
0.634649
27.3632
0.507249
20.6869
0.410255
15.6477
0.33643
11.8419
0.280172
8.96631
0.237182
6.79265
0.204174
5.14875
0.178658
3.90462
0.158757
2.96226
0.143078
2.24776
0.130594
1.70558
0.120557
1.29391
0.112423
0.981291
0.105799
0.743925
0.100402
0.563764
0.0960133
0.427113
0.0924671
0.323493
0.244959
0.0896173
1.74212
112.667
1.38596
84.7668
1.09757
63.8832
0.868614
48.1966
0.68913
36.3952
0.549752
27.5025
0.442223
20.7944
0.359626
15.7303
0.296329
11.9052
0.247824
9.01481
0.210575
6.82989
0.181824
5.1775
0.15946
3.92699
0.141881
2.97984
0.127896
2.26174
0.116628
1.71684
0.107449
1.30309
0.0999098
0.988831
0.0936894
0.750145
0.0885607
0.568892
0.0843478
0.431325
0.0809159
0.326925
0.247735
0.0781398
1.42431
112.944
1.1659
85.0252
0.941766
64.1073
0.755849
48.3825
0.605735
36.5453
0.48675
27.6215
0.393602
20.8875
0.321287
15.8026
0.265428
11.961
0.222356
9.05788
0.189097
6.86315
0.163286
5.20331
0.143083
3.94719
0.127079
2.99584
0.114225
2.2746
0.103753
1.72732
0.0951202
1.31172
0.0879443
0.996007
0.0819597
0.756129
0.0769804
0.573872
0.0728611
0.435445
0.0694881
0.330298
0.250473
0.0667499
1.18289
113.096
1.00234
85.2058
0.827991
64.2816
0.674476
48.536
0.545871
36.6739
0.441434
27.726
0.358305
20.9707
0.293007
15.8679
0.242137
12.0119
0.202653
9.09737
0.172
6.89381
0.148086
5.22723
0.129261
3.96602
0.114244
3.01086
0.102081
2.28676
0.0920791
1.73732
0.083752
1.32005
0.0767677
1.00299
0.0708991
0.761998
0.0659897
0.578781
0.0619139
0.439521
0.0585711
0.33364
0.253187
0.0558569
1.00031
113.146
0.88229
85.3238
0.746584
64.4173
0.617308
48.6653
0.504189
36.787
0.409827
27.8203
0.333384
21.0471
0.27261
15.9287
0.224857
12.0596
0.187559
9.13466
0.158456
6.92291
0.135649
5.25004
0.117607
3.98406
0.103135
3.02533
0.0913361
2.29856
0.0815634
1.74709
0.0733712
1.32824
0.0664614
1.0099
0.0606334
0.767826
0.0557506
0.583664
0.0516982
0.443573
0.0483806
0.336958
0.255872
0.0456951
0.865786
113.11
0.797769
85.3918
0.691604
64.5235
0.579901
48.777
0.477344
36.8896
0.389405
27.9083
0.316922
21.1196
0.258634
15.987
0.212473
12.1058
0.176215
9.17092
0.147804
6.95132
0.125459
5.27238
0.107723
4.00179
0.0934419
3.03961
0.0817502
2.31025
0.0720257
1.75681
0.0638466
1.33642
0.0569362
1.01681
0.0511103
0.773651
0.0462422
0.588532
0.042219
0.447596
0.0389426
0.340235
0.258508
0.0363068
0.764983
113.002
0.738128
85.4187
0.655106
64.6065
0.556307
48.8758
0.460877
36.985
0.376814
27.9923
0.306398
21.19
0.249182
16.0442
0.203555
12.1514
0.167546
9.20693
0.139235
6.97963
0.116914
5.2947
0.0991603
4.01955
0.0848359
3.05394
0.0730876
2.322
0.0633029
1.7666
0.0550731
1.34465
0.0481334
1.02375
0.0423074
0.779477
0.0374697
0.593369
0.0335021
0.451564
0.0302965
0.34344
0.261064
0.0277403
0.690105
112.83
0.697614
85.4111
0.632818
64.6713
0.543335
48.9653
0.452391
37.076
0.370254
28.0745
0.300456
21.2598
0.24323
16.1014
0.197328
12.1973
0.160963
9.2433
0.132303
7.00829
0.109673
5.31733
0.0916608
4.03756
0.077124
3.06847
0.0652061
2.33392
0.0552935
1.77651
0.0469812
1.35296
0.0400083
1.03072
0.0341979
0.785288
0.0294185
0.598149
0.0255397
0.455443
0.0224393
0.34654
0.263507
0.0199965
0.00941341
112.82
0.0166433
85.4039
0.022205
64.6658
0.0264208
48.961
0.0295947
37.0728
0.031957
28.0721
0.0336894
21.2581
0.0349222
16.1002
0.0357324
12.1965
0.0361464
9.24288
0.0361518
7.00829
0.0357042
5.31778
0.0347548
4.03851
0.0332712
3.06996
0.0312788
2.33591
0.0288701
1.77892
0.026207
1.35563
0.0234827
1.03345
0.0208771
0.787893
0.0185289
0.600497
0.0165073
0.457464
0.0148311
0.348217
0.264856
0.0134819
0.00687788
112.814
0.0121498
85.3986
0.0162135
64.6617
0.0192832
48.958
0.0215832
37.0705
0.0232793
28.0704
0.0245052
21.2568
0.0253561
16.0993
0.0258831
12.196
0.026095
9.24267
0.0259681
7.00841
0.0254535
5.31829
0.0245024
4.03946
0.0230865
3.07137
0.0212372
2.33776
0.0190522
1.78111
0.0166924
1.35799
0.0143418
1.0358
0.0121579
0.790077
0.0102503
0.602405
0.00865884
0.459056
0.00737785
0.349497
0.26586
0.00637387
0.00468086
112.809
0.00825194
85.3951
0.0110133
64.6589
0.0130864
48.9559
0.0146256
37.069
0.0157417
28.0693
0.016527
21.2561
0.0170464
16.0988
0.0173291
12.1957
0.0173697
9.24263
0.0171364
7.00865
0.0165786
5.31885
0.0156503
4.04039
0.0143304
3.07269
0.0126571
2.33943
0.0107326
1.78303
0.00871286
1.36001
0.00676608
1.03775
0.00502201
0.791821
0.00355763
0.603869
0.00238476
0.460228
0.00147872
0.350404
0.266542
0.000796932
0.00275852
112.807
0.00483849
85.393
0.00645695
64.6573
0.00765428
48.9547
0.00852492
37.0681
0.00913088
28.0687
0.009529
21.2557
0.00975757
16.0986
0.00982752
12.1956
0.00972191
9.24273
0.00940348
7.00896
0.00882234
5.31943
0.00793808
4.04127
0.00673847
3.07389
0.00526914
2.3409
0.0036345
1.78466
0.00198048
1.36166
0.000453782
1.03927
-0.000847394
0.793122
-0.0018798
0.604902
-0.00265635
0.461005
-0.0032173
0.350964
0.266936
-0.00361149
0.00106394
112.806
0.00182652
85.3922
0.00243434
64.6567
0.00285666
48.9543
0.00313508
37.0678
0.00328908
28.0685
0.00334417
21.2556
0.00331574
16.0986
0.00319914
12.1958
0.00296822
9.24297
0.0025825
7.00935
0.00199508
5.32002
0.0011731
4.04209
0.000114741
3.07495
-0.00112741
2.34214
-0.00244958
1.78599
-0.00372131
1.36293
-0.0048234
1.04037
-0.00569168
0.79399
-0.00631553
0.605525
-0.00672831
0.461418
-0.00698108
0.351217
0.267078
-0.00712349
-0.000438764
112.806
-0.000846955
85.3926
-0.00113846
64.657
-0.0014062
48.9545
-0.00165545
37.0681
-0.00190433
28.0688
-0.00215497
21.2559
-0.00241183
16.0988
-0.00269291
12.196
-0.00303136
9.2433
-0.0034691
7.00979
-0.00404808
5.3206
-0.004792
4.04284
-0.00569148
3.07585
-0.00668829
2.34314
-0.00768288
1.78698
-0.00856549
1.36381
-0.00924867
1.04106
-0.00970297
0.794445
-0.00994778
0.60577
-0.0100322
0.461502
-0.0100129
0.351198
0.267002
-0.00993696
-0.00177789
112.808
-0.00323148
85.3941
-0.00432634
64.6581
-0.00521148
48.9554
-0.00593309
37.0688
-0.0065428
28.0694
-0.0070671
21.2564
-0.00752797
16.0993
-0.00795456
12.1965
-0.00838534
9.24373
-0.00886192
7.01026
-0.00941987
5.32116
-0.0100724
4.04349
-0.0107988
3.07657
-0.0115369
2.34388
-0.0121953
1.78764
-0.0126894
1.36431
-0.0129667
1.04133
-0.0130317
0.794509
-0.0129297
0.605668
-0.0127208
0.461293
-0.0124633
0.35094
0.266738
-0.0121993
-0.00297593
112.812
-0.00536611
85.3965
-0.00718196
64.6599
-0.0086216
48.9569
-0.00976773
37.0699
-0.0107018
28.0703
-0.0114722
21.2572
-0.0121158
16.1
-0.0126716
12.197
-0.0131815
9.24424
-0.0136857
7.01077
-0.0142118
5.32168
-0.014762
4.04404
-0.0153044
3.07712
-0.0157749
2.34435
-0.0160944
1.78796
-0.0162071
1.36442
-0.0160967
1.04122
-0.0158001
0.794213
-0.0153839
0.605252
-0.0149152
0.460824
-0.0144507
0.350476
0.266313
-0.0140257
-0.00405081
112.816
-0.00728349
85.3997
-0.00974874
64.6624
-0.0116877
48.9588
-0.0132166
37.0715
-0.0144434
28.0715
-0.0154355
21.2581
-0.0162436
16.1008
-0.0169142
12.1977
-0.0174919
9.24482
-0.0180138
7.01129
-0.0184991
5.32217
-0.0189381
4.04448
-0.0192887
3.07747
-0.0194873
2.34455
-0.0194704
1.78794
-0.0192138
1.36416
-0.0187379
1.04075
-0.0181087
0.793584
-0.0174104
0.604554
-0.0167131
0.460127
-0.0160697
0.349832
0.26575
-0.0155075
-0.00501843
112.821
-0.00901075
85.4037
-0.012062
64.6654
-0.0144525
48.9612
-0.0163276
37.0733
-0.0178191
28.073
-0.0190119
21.2593
-0.0199682
16.1017
-0.0207412
12.1985
-0.0213767
9.24546
-0.021908
7.01182
-0.022345
5.3226
-0.0226662
4.0448
-0.0228204
3.07762
-0.0227467
2.34447
-0.0224006
1.7876
-0.021791
1.36355
-0.0209741
1.03993
-0.020042
0.792651
-0.0190921
0.603604
-0.0181947
0.45923
-0.0173972
0.349035
0.265071
-0.0167182
-0.00589219
112.827
-0.0105716
85.4084
-0.0141533
64.669
-0.0169532
48.964
-0.0191423
37.0755
-0.0208742
28.0748
-0.022249
21.2607
-0.0233393
16.1028
-0.0242037
12.1993
-0.0248884
9.24614
-0.025422
7.01235
-0.0258047
5.32299
-0.0260036
4.045
-0.0259596
3.07758
-0.0256173
2.34413
-0.0249534
1.78693
-0.0240103
1.36261
-0.0228787
1.0388
-0.0216729
0.791446
-0.0204998
0.602431
-0.0194279
0.458158
-0.0184976
0.348105
0.264293
-0.017719
-0.0066833
112.834
-0.0119863
85.4137
-0.0160504
64.6731
-0.0192223
48.9672
-0.0216972
37.078
-0.0236478
28.0767
-0.0251883
21.2623
-0.0264002
16.104
-0.0273464
12.2003
-0.0280728
9.24687
-0.0286027
7.01288
-0.0289267
5.32331
-0.0290007
4.04507
-0.0287598
3.07734
-0.0281559
2.34353
-0.027189
1.78597
-0.0259346
1.36136
-0.024515
1.03738
-0.0230637
0.789994
-0.0216934
0.601061
-0.0204693
0.456934
-0.0194245
0.34706
0.263429
-0.0185605
-0.00740249
112.842
-0.0132735
85.4196
-0.0177771
64.6776
-0.0212886
48.9707
-0.0240245
37.0807
-0.0261749
28.0789
-0.0278666
21.2639
-0.0291891
16.1053
-0.0302089
12.2013
-0.0309705
9.24763
-0.0314919
7.01341
-0.031754
5.32357
-0.0317026
4.04502
-0.0312688
3.0769
-0.0304136
2.34267
-0.0291615
1.78471
-0.0276198
1.35981
-0.0259392
1.0357
-0.0242688
0.788324
-0.0227247
0.599517
-0.0213678
0.455577
-0.0202238
0.345916
0.262491
-0.0192862
-0.00805942
112.85
-0.0144496
85.4259
-0.0193558
64.6825
-0.0231786
48.9745
-0.0261538
37.0837
-0.0284876
28.0812
-0.0303181
21.2658
-0.0317417
16.1068
-0.0328277
12.2024
-0.0336191
9.24842
-0.0341282
7.01391
-0.0343265
5.32377
-0.034151
4.04485
-0.0335306
3.07628
-0.0324374
2.34158
-0.0309206
1.7832
-0.0291168
1.35801
-0.0272019
1.03378
-0.0253374
0.78646
-0.0236405
0.59782
-0.0221675
0.454104
-0.0209371
0.344685
0.261489
-0.0199355
-0.00866219
112.859
-0.0155298
85.4328
-0.0208066
64.6878
-0.0249161
48.9786
-0.0281119
37.0869
-0.0306147
28.0837
-0.032573
21.2677
-0.0340895
16.1083
-0.0352356
12.2035
-0.0360523
9.24924
-0.0365462
7.01441
-0.0366801
5.3239
-0.0363836
4.04455
-0.0355854
3.07548
-0.03427
2.34026
-0.0325108
1.78144
-0.0304714
1.35597
-0.0283485
1.03166
-0.0263132
0.784424
-0.0244825
0.595989
-0.0229079
0.452529
-0.0216019
0.343379
0.260432
-0.020544
-0.00921935
112.869
-0.0165289
85.4401
-0.0221488
64.6934
-0.026524
48.983
-0.0299243
37.0903
-0.032584
28.0864
-0.0346608
21.2698
-0.0362631
16.1099
-0.0374641
12.2047
-0.0383025
9.25008
-0.0387793
7.01488
-0.0388494
5.32397
-0.0384365
4.04414
-0.0374713
3.07452
-0.0359517
2.33874
-0.0339747
1.77946
-0.0317267
1.35372
-0.0294219
1.02936
-0.0272379
0.78224
-0.0252907
0.594042
-0.0236274
0.450866
-0.0222549
0.342007
0.259324
-0.0211472
-0.00973837
112.879
-0.0174595
85.4478
-0.0233998
64.6993
-0.0280231
48.9876
-0.0316144
37.0939
-0.0344205
28.0892
-0.036608
21.272
-0.0382903
16.1116
-0.0395419
12.206
-0.0403991
9.25093
-0.0408576
7.01534
-0.0408656
5.32398
-0.0403426
4.04361
-0.0392233
3.0734
-0.0375195
2.33704
-0.0353504
1.77729
-0.032922
1.3513
-0.0304612
1.0269
-0.0281499
0.779929
-0.0261023
0.591994
-0.0243618
0.449126
-0.0229307
0.340576
0.258172
-0.0217786
-0.0102261
112.889
-0.0183349
85.456
-0.0245764
64.7056
-0.0294334
48.9925
-0.0332046
37.0977
-0.0361486
28.0921
-0.0384403
21.2743
-0.0401978
16.1133
-0.0414966
12.2073
-0.0423706
9.25181
-0.0428106
7.01578
-0.0427592
5.32393
-0.0421337
4.04299
-0.0408746
3.07214
-0.0390084
2.33517
-0.0366745
1.77496
-0.0340944
1.34872
-0.0315037
1.0243
-0.0290862
0.777512
-0.0269537
0.589862
-0.0251468
0.447319
-0.0236642
0.339093
0.25698
-0.0224722
-0.0106899
112.9
-0.0191665
85.4644
-0.0256949
64.7121
-0.0307738
48.9975
-0.034716
37.1016
-0.0377912
28.0952
-0.0401821
21.2767
-0.042011
16.1152
-0.0433543
12.2086
-0.0442437
9.2527
-0.0446658
7.0162
-0.0445586
5.32382
-0.0438393
4.04227
-0.0424564
3.07076
-0.040451
2.33317
-0.0379807
1.77249
-0.0352785
1.34601
-0.0325846
1.02161
-0.0300824
0.77501
-0.0278806
0.58766
-0.026018
0.445456
-0.0244908
0.337566
0.255752
-0.0232631
-0.0111359
112.911
-0.0199666
85.4733
-0.0267702
64.7189
-0.0320627
49.0028
-0.0361693
37.1057
-0.0393706
28.0984
-0.0418567
21.2792
-0.0437541
16.117
-0.0451403
12.21
-0.0460445
9.2536
-0.0464497
7.01661
-0.0462914
5.32367
-0.0454882
4.04146
-0.0439984
3.06927
-0.0418782
2.33105
-0.0393008
1.76991
-0.0365072
1.34322
-0.0337378
1.01884
-0.0311732
0.772445
-0.0289188
0.585405
-0.0270119
0.443549
-0.0254475
0.336001
0.254493
-0.0241887
-0.0115703
112.923
-0.0207451
85.4824
-0.0278171
64.726
-0.0333171
49.0083
-0.0375834
37.11
-0.0409073
28.1017
-0.043486
21.2817
-0.0454502
16.119
-0.046878
12.2114
-0.047797
9.25452
-0.0481874
7.017
-0.0479831
5.32346
-0.0471066
4.04059
-0.045528
3.06769
-0.0433181
2.32884
-0.0406641
1.76726
-0.0378104
1.34037
-0.0349946
1.01603
-0.0323919
0.769842
-0.0301035
0.583117
-0.0281656
0.441612
-0.0265729
0.334409
0.25321
-0.025289
-0.0119993
112.935
-0.0215138
85.492
-0.0288499
64.7333
-0.034554
49.014
-0.0389777
37.1144
-0.042422
28.1052
-0.0450919
21.2844
-0.0471218
16.121
-0.048591
12.2129
-0.0495254
9.25545
-0.0499034
7.01738
-0.0496591
5.32322
-0.0487208
4.03965
-0.0470719
3.06604
-0.0447982
2.32656
-0.0420983
1.76456
-0.0392174
1.33748
-0.0363861
1.01319
-0.0337721
0.767228
-0.031471
0.580816
-0.0295184
0.439659
-0.0279092
0.3328
0.251909
-0.0266083
-0.0124287
112.948
-0.022282
85.5018
-0.0298815
64.7409
-0.0357896
49.02
-0.0403698
37.119
-0.0439342
28.1087
-0.0466949
21.2872
-0.0487905
16.1231
-0.0503013
12.2144
-0.0512524
9.2564
-0.051621
7.01775
-0.0513431
5.32294
-0.050355
4.03866
-0.0486547
3.06434
-0.0463432
2.32425
-0.0436289
1.76184
-0.0407544
1.33461
-0.0379405
1.01038
-0.0353451
0.764633
-0.033057
0.578528
-0.0311101
0.437712
-0.0295
0.33119
0.250603
-0.0281938
-0.0128642
112.961
-0.0230602
85.512
-0.0309259
64.7488
-0.0370392
49.0261
-0.0417774
37.1237
-0.0454627
28.1124
-0.0483148
21.29
-0.0504769
16.1253
-0.0520304
12.216
-0.053
9.25737
-0.0533627
7.01811
-0.0530581
5.32263
-0.0520323
4.03764
-0.0502996
3.06261
-0.0479764
2.32193
-0.0452788
1.75914
-0.0424451
1.33178
-0.0396838
1.00762
-0.0371405
0.76209
-0.0348958
0.576283
-0.0329806
0.435797
-0.0313908
0.3296
0.249308
-0.0300961
-0.0133105
112.975
-0.0238575
85.5225
-0.031995
64.7569
-0.038318
49.0324
-0.0432171
37.1286
-0.0470256
28.1162
-0.049971
21.293
-0.0522009
16.1275
-0.0537986
12.2176
-0.0547888
9.25836
-0.0551497
7.01847
-0.0548257
5.32231
-0.0537747
4.03658
-0.0520286
3.06086
-0.0497195
2.31962
-0.0470695
1.75649
-0.0443117
1.32902
-0.0416399
1.00495
-0.0391857
0.759636
-0.037021
0.574118
-0.0351691
0.433945
-0.0336292
0.32806
0.248048
-0.0323691
-0.0131025
112.988
-0.0232614
85.5327
-0.0309724
64.7646
-0.0368893
49.0383
-0.0414311
37.1332
-0.0449377
28.1197
-0.0476362
21.2957
-0.0496706
16.1296
-0.0511195
12.219
-0.0520046
9.25925
-0.0523056
7.01877
-0.0519746
5.32198
-0.0509826
4.03559
-0.0493724
3.05925
-0.047278
2.31753
-0.0449059
1.75412
-0.0424641
1.32658
-0.0401182
1.0026
-0.0379718
0.757489
-0.0360878
0.572234
-0.0344721
0.432329
-0.0331309
0.326719
0.246947
-0.0320293
-0.0107126
112.999
-0.0190191
85.541
-0.025321
64.7709
-0.0301554
49.0431
-0.0338645
37.1369
-0.0367269
28.1226
-0.0389283
21.2979
-0.0405862
16.1312
-0.0417649
12.2202
-0.0424817
9.25997
-0.0427227
7.01901
-0.0424544
5.32171
-0.0416633
4.0348
-0.0403942
3.05798
-0.0387646
2.3159
-0.03694
1.7523
-0.0350814
1.32472
-0.0333143
1.00083
-0.0317045
0.75588
-0.0303043
0.570834
-0.0291033
0.431128
-0.0281094
0.325725
0.246131
-0.0272942
-0.00871433
113.008
-0.0154721
85.5478
-0.0205969
64.776
-0.0245276
49.0471
-0.0275421
37.1399
-0.0298677
28.1249
-0.0316556
21.2997
-0.0330016
16.1326
-0.0339574
12.2211
-0.0345376
9.26055
-0.0347321
7.01921
-0.0345178
5.3215
-0.0338906
4.03417
-0.0328928
3.05698
-0.0316252
2.31463
-0.03022
1.75089
-0.0288024
1.3233
-0.027469
0.999501
-0.026261
0.754672
-0.0252207
0.569794
-0.0243312
0.430239
-0.0235993
0.324993
0.245533
-0.0230006
-0.00705212
113.015
-0.0125216
85.5532
-0.0166682
64.7802
-0.0198478
49.0502
-0.0222856
37.1423
-0.0241658
28.1268
-0.0256111
21.3011
-0.026699
16.1337
-0.0274713
12.2219
-0.0279396
9.26101
-0.0280971
7.01936
-0.0279276
5.32133
-0.027432
4.03368
-0.0266487
3.0562
-0.0256622
2.31364
-0.0245781
1.74981
-0.0234939
1.32222
-0.0224839
0.998491
-0.0215762
0.753764
-0.0208002
0.569018
-0.0201422
0.429581
-0.0196035
0.324454
0.245095
-0.0191654
-0.00568257
113.021
-0.0100909
85.5576
-0.0134321
64.7835
-0.0159937
49.0528
-0.0179572
37.1443
-0.0194713
28.1283
-0.0206352
21.3023
-0.0215112
16.1345
-0.0221331
12.2225
-0.0225103
9.26139
-0.0226379
7.01949
-0.0225044
5.32119
-0.0221136
4.03329
-0.0214986
3.05558
-0.0207296
2.31287
-0.0198907
1.74897
-0.0190585
1.32138
-0.0182889
0.997722
-0.0176046
0.75308
-0.0170215
0.568435
-0.0165338
0.429093
-0.0161352
0.324055
0.244774
-0.0158145
-0.00454785
113.025
-0.00807689
85.5612
-0.0107509
64.7862
-0.0128007
49.0549
-0.0143717
37.1459
-0.0155829
28.1295
-0.016514
21.3032
-0.017215
16.1352
-0.0177127
12.223
-0.0180147
9.26169
-0.0181175
7.01959
-0.018013
5.32109
-0.0177058
4.03298
-0.0172242
3.0551
-0.0166255
2.31227
-0.0159764
1.74832
-0.015337
1.32075
-0.0147489
0.997134
-0.014232
0.752563
-0.0137922
0.567995
-0.0134299
0.428731
-0.0131334
0.323759
0.244539
-0.0128987
-0.00370134
113.029
-0.00657321
85.564
-0.00874867
64.7884
-0.0104161
49.0565
-0.0116937
37.1471
-0.0126787
28.1305
-0.013436
21.304
-0.0140064
16.1358
-0.0144119
12.2234
-0.0146583
9.26194
-0.0147431
7.01968
-0.0146603
5.32101
-0.0144148
4.03274
-0.0140304
3.05472
-0.0135543
2.3118
-0.0130408
1.74781
-0.0125379
1.32024
-0.0120775
0.996673
-0.0116766
0.752162
-0.0113361
0.567655
-0.0110597
0.428454
-0.0108331
0.323532
0.244363
-0.010657
-0.00288507
113.032
-0.00512579
85.5663
-0.00682281
64.7901
-0.00812329
49.0578
-0.00911969
37.1481
-0.00988792
28.1313
-0.0104786
21.3045
-0.0109236
16.1362
-0.0112399
12.2238
-0.0114321
9.26213
-0.0114984
7.01975
-0.0114345
5.32094
-0.011245
4.03255
-0.0109492
3.05442
-0.0105844
2.31143
-0.0101928
1.74742
-0.0098112
1.31986
-0.00946339
0.996325
-0.00916266
0.751861
-0.0089083
0.5674
-0.00870435
0.42825
-0.00853683
0.323365
0.244235
-0.00840868
0.00222248
113.03
0.00414286
85.5644
0.00581766
64.7884
0.00723839
49.0564
0.00843064
37.1469
0.00941764
28.1303
0.0102318
21.3037
0.0109108
16.1356
0.0114965
12.2232
0.0120325
9.2616
0.0125581
7.01922
0.0131032
5.3204
0.0136783
4.03197
0.014272
3.05383
0.0148538
2.31085
0.0153915
1.74688
0.0158612
1.31939
0.0162533
0.995933
0.016568
0.751546
0.0168177
0.567151
0.0170083
0.42806
0.0171581
0.323215
0.244128
0.0172646
0.00233488
113.027
0.00435129
85.5624
0.00611006
64.7866
0.00760225
49.0549
0.0088545
37.1457
0.00989113
28.1292
0.010746
21.3029
0.0114588
16.1349
0.0120735
12.2226
0.0126358
9.26103
0.013187
7.01867
0.013758
5.31983
0.014359
4.03137
0.0149773
3.05321
0.0155806
2.31025
0.0161355
1.74632
0.0166171
1.31891
0.0170165
0.995534
0.0173346
0.751228
0.0175841
0.566901
0.017773
0.427871
0.0179202
0.323068
0.244024
0.0180247
0.00245284
113.025
0.00457008
85.5602
0.00641721
64.7848
0.00798445
49.0533
0.00929974
37.1444
0.0103885
28.1282
0.0112862
21.302
0.0120345
16.1341
0.0126795
12.2219
0.0132695
9.26044
0.0138475
7.01809
0.0144455
5.31923
0.0150733
4.03074
0.0157169
3.05257
0.016342
2.30962
0.0169139
1.74575
0.0174071
1.31842
0.0178131
0.995128
0.018134
0.750908
0.0183824
0.566653
0.0185689
0.427684
0.0187129
0.322924
0.243921
0.0188155
0.00257665
113.023
0.00480003
85.558
0.00673991
64.7829
0.00838588
49.0517
0.0097674
37.143
0.010911
28.127
0.0118537
21.301
0.0126393
16.1333
0.0133162
12.2212
0.0139353
9.25982
0.0145413
7.01748
0.0151674
5.3186
0.015823
4.03009
0.0164924
3.0519
0.0171395
2.30898
0.0177281
1.74516
0.0182324
1.31791
0.018644
0.994716
0.0189667
0.750585
0.0192134
0.566406
0.0193963
0.427501
0.0195361
0.322784
0.243821
0.0196361
0.00270698
113.02
0.00504146
85.5557
0.00707865
64.7808
0.00880751
49.05
0.0102586
37.1415
0.0114598
28.1258
0.0124498
21.3
0.0132746
16.1325
0.0139851
12.2205
0.0146347
9.25917
0.0152701
7.01685
0.0159254
5.31795
0.0166096
4.0294
0.0173055
3.0512
0.0179745
2.30831
0.0185795
1.74456
0.0190941
1.3174
0.0195102
0.9943
0.0198334
0.750262
0.0200774
0.566162
0.0202554
0.427323
0.0203898
0.32265
0.243725
0.0204859
0.00284351
113.017
0.005295
85.5532
0.00743452
64.7787
0.00925037
49.0482
0.0107746
37.14
0.0120363
28.1245
0.0130761
21.299
0.0139421
16.1316
0.0146879
12.2198
0.0153693
9.25849
0.0160355
7.01618
0.0167213
5.31726
0.017435
4.02869
0.0181577
3.05048
0.0188488
2.30762
0.0194694
1.74394
0.0199935
1.31687
0.0204129
0.993881
0.0207352
0.749939
0.0209754
0.565922
0.0211473
0.427152
0.0212746
0.322522
0.243635
0.0213652
0.00298735
113.014
0.00556129
85.5506
0.00780818
64.7764
0.00971552
49.0462
0.0113166
37.1384
0.0126418
28.1232
0.0137339
21.2979
0.0146433
16.1307
0.015426
12.219
0.016141
9.25778
0.0168393
7.01548
0.0175567
5.31654
0.0183009
4.02794
0.0190508
3.04973
0.0197639
2.3069
0.0203997
1.7433
0.0209322
1.31634
0.0213537
0.99346
0.0216736
0.749619
0.0219089
0.565687
0.0220734
0.426987
0.0221923
0.322404
0.243551
0.0222758
0.00313806
113.011
0.00584098
85.5479
0.00820089
64.7741
0.0102041
49.0442
0.0118858
37.1367
0.0132779
28.1218
0.014425
21.2968
0.0153798
16.1298
0.0162015
12.2182
0.0169517
9.25703
0.0176834
7.01475
0.0184337
5.31579
0.0192091
4.02717
0.0199868
3.04895
0.0207216
2.30617
0.021372
1.74265
0.0219119
1.3158
0.0223344
0.993037
0.0226505
0.749303
0.0228796
0.565458
0.023036
0.426831
0.0231454
0.322294
0.243476
0.0232205
0.00329658
113.008
0.00613471
85.5451
0.00861314
64.7716
0.0107172
49.0421
0.0124837
37.135
0.0139461
28.1204
0.0151509
21.2956
0.0161537
16.1288
0.0170162
12.2173
0.0178031
9.25624
0.01857
7.01399
0.0193543
5.31501
0.0201619
4.02636
0.0209676
3.04815
0.0217241
2.30541
0.0223883
1.74199
0.0229347
1.31525
0.023357
0.992615
0.0236681
0.748992
0.0238899
0.565236
0.0240376
0.426683
0.0241369
0.322195
0.24341
0.0242027
0.0034631
113.005
0.00644328
85.5421
0.0090462
64.769
0.0112562
49.0399
0.0131118
37.1331
0.014648
28.1188
0.0159135
21.2943
0.0169665
16.1277
0.017872
12.2164
0.0186976
9.25542
0.019501
7.01318
0.0203207
5.31419
0.0211613
4.02552
0.0219953
3.04731
0.0227733
2.30463
0.0234506
1.74131
0.0240025
1.3147
0.0244238
0.992193
0.0247287
0.748687
0.0249423
0.565022
0.025081
0.426544
0.02517
0.322106
0.243354
0.0252262
0.00363809
113.001
0.00676749
85.539
0.00950087
64.7663
0.0118223
49.0376
0.0137715
37.1312
0.0153853
28.1172
0.0167146
21.293
0.0178205
16.1266
0.018771
12.2155
0.0196371
9.25455
0.0204787
7.01234
0.021335
5.31333
0.0222095
4.02465
0.0230723
3.04645
0.0238714
2.30384
0.0245612
1.74062
0.0251174
1.31415
0.0255368
0.991774
0.0258347
0.748389
0.0260392
0.564818
0.0261686
0.426415
0.0262475
0.322027
0.243307
0.0262943
0.00382159
112.997
0.00710781
85.5357
0.00997873
64.7634
0.0124168
49.0352
0.0144644
37.1291
0.0161598
28.1155
0.0175562
21.2916
0.0187176
16.1254
0.0197155
12.2145
0.020624
9.25364
0.0215055
7.01146
0.0223999
5.31244
0.0233091
4.02374
0.0242008
3.04556
0.0250206
2.30302
0.025722
1.73992
0.0262816
1.31359
0.026698
0.991358
0.0269882
0.748099
0.0271829
0.564623
0.0273027
0.426295
0.0273717
0.321958
0.24327
0.0274093
0.00401469
112.993
0.00746522
85.5323
0.0104803
64.7604
0.0130413
49.0326
0.0151923
37.127
0.0169733
28.1137
0.0184402
21.2901
0.0196601
16.1242
0.0207077
12.2134
0.0216608
9.25269
0.0225839
7.01054
0.0235176
5.3115
0.0244624
4.02279
0.0253831
3.04464
0.0262232
2.30218
0.0269352
1.73921
0.0274969
1.31302
0.0279095
0.990945
0.028191
0.747818
0.0283751
0.564439
0.0284849
0.426185
0.0285441
0.321899
0.243241
0.028573
0.00421743
112.989
0.00784083
85.5286
0.0110073
64.7572
0.0136973
49.0299
0.0159567
37.1247
0.0178278
28.1119
0.0193689
21.2886
0.0206502
16.1229
0.0217501
12.2123
0.0227498
9.25169
0.0237164
7.00957
0.0246908
5.31053
0.0256719
4.02181
0.0266218
3.04369
0.0274815
2.30132
0.028203