/*--------------------------------*- C++ -*----------------------------------*\
  =========                 |
  \\      /  F ield         | OpenFOAM: The Open Source CFD Toolbox
   \\    /   O peration     | Website:  https://openfoam.org
    \\  /    A nd           | Version:  7
     \\/     M anipulation  |
\*---------------------------------------------------------------------------*/
FoamFile
{
    version     2.0;
    format      ascii;
    class       volVectorField;
    location    "42";
    object      U;
}
// * * * * * * * * * * * * * * * * * * * * * * * * * * * * * * * * * * * * * //

dimensions      [0 1 -1 0 0 0 0];

internalField   nonuniform List<vector> 
12842
(
(15.6201 0.00125396 -2.56239e-19)
(15.62 0.00321678 -6.73346e-20)
(15.6195 0.00599585 -2.10963e-20)
(15.6187 0.00924315 5.82585e-20)
(15.6173 0.0130584 -2.36738e-19)
(15.615 0.0175705 0)
(15.6115 0.0229186 0)
(15.6061 0.029267 -4.69067e-20)
(15.5979 0.0368101 3.30351e-19)
(15.5855 0.0457723 8.41789e-21)
(15.5673 0.0563895 1.87397e-19)
(15.5414 0.0688737 -3.04043e-20)
(15.5055 0.0833595 2.16563e-19)
(15.4575 0.09985 6.28323e-20)
(15.3961 0.118161 -9.02399e-20)
(15.3208 0.137883 -2.76708e-19)
(15.2326 0.158473 -2.56858e-19)
(15.1339 0.179255 0)
(15.0286 0.199521 2.41845e-20)
(14.9212 0.21864 1.77698e-19)
(14.8167 0.236127 2.09212e-20)
(14.7186 0.251684 -1.11471e-19)
(14.6312 0.265227 7.62794e-20)
(15.6204 0.00131939 1.80304e-19)
(15.6206 0.00354339 0)
(15.6206 0.00653173 -1.25483e-19)
(15.6202 0.0100756 7.86157e-20)
(15.6193 0.0143306 1.76365e-19)
(15.6176 0.01951 0)
(15.6148 0.0258707 -2.56321e-19)
(15.6102 0.0337398 0)
(15.6031 0.0435286 -3.99748e-19)
(15.592 0.0557265 -2.73886e-20)
(15.5755 0.0708566 -3.20163e-19)
(15.5515 0.0893875 -3.88482e-19)
(15.5178 0.111601 -2.00788e-19)
(15.4721 0.137456 3.39272e-19)
(15.4128 0.166449 0)
(15.3392 0.197594 2.83925e-19)
(15.2522 0.229548 3.69348e-19)
(15.1542 0.260776 -5.30544e-19)
(15.049 0.289813 0)
(14.9414 0.315584 -2.12236e-19)
(14.8364 0.337359 -3.69345e-19)
(14.7377 0.35549 3.00755e-19)
(14.6496 0.368425 -3.19118e-19)
(15.6206 0.00134528 0)
(15.6212 0.00375895 0)
(15.6216 0.00687034 4.21145e-20)
(15.6217 0.0106182 -4.0454e-19)
(15.6214 0.0152032 0)
(15.6203 0.0208967 0)
(15.6182 0.0280421 2.7479e-20)
(15.6146 0.0370957 2.03578e-19)
(15.6087 0.0486519 1.51376e-19)
(15.5994 0.0634376 1.45728e-19)
(15.585 0.0822459 2.59051e-19)
(15.5634 0.105806 3.70746e-19)
(15.5325 0.134579 1.03998e-19)
(15.4896 0.168547 -4.58362e-19)
(15.4331 0.206997 0)
(15.3618 0.248514 -1.45155e-19)
(15.2766 0.291119 1.85951e-19)
(15.1798 0.332568 3.41321e-19)
(15.0753 0.370747 5.00806e-19)
(14.968 0.404173 -3.70965e-19)
(14.863 0.431812 2.72036e-19)
(14.7643 0.454514 0)
(14.6766 0.469358 1.18556e-19)
(15.6209 0.00134606 -6.2773e-21)
(15.6219 0.00387922 -3.45689e-20)
(15.6227 0.00704657 1.349e-19)
(15.6233 0.0109262 4.74001e-19)
(15.6234 0.0157534 -4.67415e-20)
(15.623 0.0218383 1.63078e-19)
(15.6217 0.0295843 6.97957e-20)
(15.6192 0.0395502 -1.97205e-19)
(15.6147 0.0524861 -2.57794e-19)
(15.6073 0.0693362 1.66434e-19)
(15.5953 0.0911548 -5.32438e-19)
(15.5767 0.118943 9.25471e-20)
(15.5491 0.153377 -1.20779e-19)
(15.5098 0.194527 -4.80977e-19)
(15.4566 0.241563 1.47924e-19)
(15.3886 0.292741 -1.90694e-19)
(15.306 0.345563 -1.07374e-19)
(15.2112 0.397177 -3.22474e-19)
(15.1082 0.444872 -1.34797e-19)
(15.002 0.486761 -1.42367e-19)
(14.898 0.521424 -1.31918e-19)
(14.8001 0.550077 -1.79701e-19)
(14.7133 0.56841 3.18971e-19)
(15.6212 0.00132926 -2.35792e-19)
(15.6225 0.00389485 0)
(15.6237 0.007061 -1.40994e-20)
(15.6247 0.0110083 -1.44499e-19)
(15.6254 0.0159971 -9.10057e-21)
(15.6257 0.0223621 -3.95734e-19)
(15.6252 0.0305467 2.60961e-20)
(15.6239 0.0411909 2.75431e-19)
(15.621 0.0551779 3.02685e-19)
(15.6156 0.0736538 -2.39931e-19)
(15.6064 0.0979302 3.73653e-19)
(15.5912 0.129295 3.15296e-19)
(15.5675 0.168679 -9.52111e-20)
(15.5325 0.216296 8.46026e-19)
(15.4837 0.271276 3.66681e-19)
(15.4198 0.331628 -3.40543e-19)
(15.3409 0.394407 0)
(15.2492 0.456213 2.78398e-19)
(15.1488 0.513755 0)
(15.0446 0.564725 2.27508e-20)
(14.9422 0.607238 -9.56924e-20)
(14.8454 0.642818 1.59601e-19)
(14.7598 0.665705 -1.48026e-20)
(15.6215 0.00129537 1.86184e-19)
(15.623 0.00381577 0)
(15.6246 0.00692797 0)
(15.6261 0.0108795 -1.17359e-19)
(15.6273 0.0159473 1.11872e-19)
(15.6282 0.0224774 1.94422e-19)
(15.6286 0.0309336 2.96667e-19)
(15.6284 0.0420154 -2.95796e-19)
(15.6272 0.056714 0)
(15.6241 0.076358 -1.15702e-19)
(15.6178 0.102506 -2.56627e-19)
(15.6064 0.136746 -1.53527e-19)
(15.5871 0.180296 0)
(15.5572 0.233577 -3.69138e-19)
(15.5137 0.295758 -3.05179e-19)
(15.4549 0.364689 2.65025e-19)
(15.3808 0.437061 8.19889e-20)
(15.2934 0.508985 -5.37705e-19)
(15.1966 0.576607 0)
(15.0952 0.637195 4.52304e-19)
(14.9952 0.688315 -6.38562e-20)
(14.9 0.731762 -5.62116e-19)
(14.816 0.760216 7.48705e-20)
(15.6218 0.00124001 -2.94722e-20)
(15.6235 0.00366333 0)
(15.6254 0.00667902 0)
(15.6273 0.0105816 1.15704e-19)
(15.629 0.0156574 -1.33882e-19)
(15.6305 0.0222524 1.86808e-20)
(15.6318 0.030833 -1.46805e-19)
(15.6328 0.0421357 -1.23513e-20)
(15.6332 0.0572299 1.62383e-20)
(15.6323 0.077602 1.39491e-19)
(15.6292 0.105043 1.52916e-20)
(15.6218 0.141444 -8.11714e-20)
(15.6075 0.188346 0)
(15.5831 0.246435 1.76736e-19)
(15.5457 0.315002 -3.97122e-20)
(15.4931 0.391828 5.12432e-20)
(15.425 0.473323 -2.02033e-19)
(15.343 0.555187 3.07903e-19)
(15.2509 0.633023 3.54659e-19)
(15.1535 0.703682 1.15144e-19)
(15.0566 0.764095 -7.23239e-21)
(14.9637 0.816301 2.37782e-19)
(14.8816 0.851248 1.70288e-19)
(15.6221 0.00117367 0)
(15.6238 0.00345499 2.64736e-21)
(15.6261 0.0063339 -1.46903e-20)
(15.6283 0.0101347 3.8731e-21)
(15.6305 0.0151424 8.61316e-20)
(15.6325 0.02169 -1.7644e-20)
(15.6346 0.0302259 3.9156e-21)
(15.6366 0.0414996 5.45236e-20)
(15.6385 0.0566249 0)
(15.6399 0.0772133 1.50346e-20)
(15.6399 0.105256 -3.44184e-21)
(15.6366 0.142943 5.73041e-20)
(15.6274 0.19216 0)
(15.6091 0.253929 -1.72131e-19)
(15.5784 0.327767 1.213e-19)
(15.533 0.411514 0)
(15.4719 0.50142 1.97637e-19)
(15.3967 0.592874 0)
(15.3106 0.680965 -2.96191e-19)
(15.2184 0.762144 0)
(15.1258 0.832557 1.77644e-19)
(15.0363 0.894558 -9.20813e-20)
(14.9568 0.937029 -1.38079e-19)
(15.6224 0.00106184 0)
(15.6241 0.00322587 0)
(15.6268 0.00595428 1.86366e-20)
(15.6293 0.00964492 2.99404e-21)
(15.6318 0.0145774 -9.44195e-20)
(15.6344 0.0210732 -7.48413e-20)
(15.637 0.0295636 0)
(15.6399 0.0407957 -4.94398e-20)
(15.643 0.0558953 0)
(15.6461 0.0765524 1.55531e-20)
(15.6486 0.104909 4.24585e-20)
(15.6487 0.143405 2.6775e-21)
(15.644 0.194225 -4.06984e-22)
(15.6312 0.2587 0)
(15.6067 0.336562 -1.29741e-19)
(15.5678 0.425736 -1.13732e-19)
(15.5136 0.522366 2.41642e-20)
(15.4448 0.62163 -1.85448e-19)
(15.3648 0.718188 -2.10522e-19)
(15.2779 0.808227 0)
(15.1899 0.887098 -9.04451e-20)
(15.1039 0.957622 -1.52509e-21)
(15.0273 1.00679 8.67531e-20)
(15.6227 0.000937744 -8.86001e-21)
(15.6243 0.00301319 -4.24763e-20)
(15.6273 0.00561067 -4.75119e-21)
(15.6301 0.00922585 0)
(15.6329 0.014103 -1.37433e-21)
(15.6358 0.02055 1.43022e-20)
(15.6388 0.0289774 4.66839e-20)
(15.6422 0.040127 0)
(15.6462 0.055131 0)
(15.6507 0.0757383 -2.77448e-20)
(15.6551 0.104201 -4.32708e-20)
(15.6579 0.143144 -1.60458e-21)
(15.6567 0.194982 5.17188e-20)
(15.6482 0.261294 -2.62192e-21)
(15.6287 0.342005 8.3041e-21)
(15.5954 0.435143 3.36024e-20)
(15.5471 0.536819 7.80924e-20)
(15.4843 0.642099 1.56321e-19)
(15.4101 0.745341 2.37533e-19)
(15.3286 0.842578 1.69658e-19)
(15.2455 0.928483 -8.00941e-20)
(15.1635 1.00619 3.68574e-19)
(15.0904 1.06138 -7.02075e-20)
(15.623 0.000786707 4.58053e-19)
(15.6245 0.00280743 4.11867e-20)
(15.6278 0.00527237 2.52117e-22)
(15.6307 0.00883151 -7.79346e-21)
(15.6338 0.0136624 1.13164e-21)
(15.637 0.0200649 5.95829e-20)
(15.6404 0.0284262 -7.31379e-20)
(15.6444 0.0394755 -2.09749e-23)
(15.6492 0.0543435 -5.91577e-22)
(15.655 0.074828 -9.9514e-20)
(15.6612 0.103278 3.78718e-21)
(15.6666 0.142492 -1.11923e-19)
(15.6688 0.195103 -4.8522e-20)
(15.6646 0.262935 0)
(15.6503 0.346124 2.60137e-20)
(15.6229 0.442837 9.75869e-20)
(15.5809 0.549192 -1.99971e-20)
(15.525 0.660209 -8.16513e-20)
(15.4576 0.769978 7.96156e-21)
(15.3826 0.874418 -2.03432e-19)
(15.3057 0.967536 0)
(15.2292 1.05267 -9.92776e-20)
(15.1608 1.11436 0)
(15.6233 0.000609823 -6.66239e-19)
(15.6247 0.00260827 3.88802e-20)
(15.6283 0.00493525 8.25433e-22)
(15.6313 0.00845118 8.02418e-21)
(15.6346 0.0132387 -1.5854e-20)
(15.6381 0.0195981 1.03597e-21)
(15.6419 0.0278906 2.98925e-20)
(15.6464 0.0388277 5.30135e-22)
(15.652 0.0535301 -2.76578e-21)
(15.6589 0.0738335 1.02002e-19)
(15.6669 0.102172 0)
(15.6748 0.1415 1.02465e-19)
(15.6804 0.19466 8.46461e-21)
(15.6806 0.263726 -3.78896e-21)
(15.6717 0.34905 -2.45517e-20)
(15.6506 0.448971 -4.5977e-20)
(15.6157 0.55965 -4.95211e-20)
(15.5674 0.676104 1.14446e-19)
(15.5079 0.792182 0)
(15.4407 0.903721 8.93877e-20)
(15.3715 1.00407 -1.35075e-19)
(15.3017 1.09673 0)
(15.2393 1.16523 1.18361e-19)
(15.6235 0.000415776 2.18301e-19)
(15.6249 0.00241757 -2.86409e-21)
(15.6287 0.0046014 1.27419e-21)
(15.6319 0.00808304 -1.99668e-21)
(15.6354 0.0128259 2.40128e-20)
(15.6391 0.0191408 -1.77111e-22)
(15.6432 0.0273594 -2.33218e-22)
(15.6482 0.038171 2.34443e-20)
(15.6545 0.052679 -1.04774e-21)
(15.6626 0.0727458 0)
(15.6723 0.100875 1.73009e-19)
(15.6827 0.140166 4.17755e-21)
(15.6917 0.193658 4.0567e-21)
(15.6964 0.263668 -2.45858e-22)
(15.6931 0.350782 -8.90525e-21)
(15.6788 0.453528 1.72961e-20)
(15.6517 0.568135 -1.43528e-20)
(15.6118 0.689656 -3.16975e-20)
(15.5614 0.811713 2.35844e-20)
(15.5033 0.930087 -8.04281e-20)
(15.4429 1.03749 1.00468e-19)
(15.3815 1.13753 -1.74696e-19)
(15.3264 1.21295 1.21619e-19)
(15.6237 0.000211729 2.34523e-19)
(15.625 0.00223625 -3.63919e-20)
(15.6291 0.00427425 2.76285e-22)
(15.6323 0.00772861 7.38495e-21)
(15.6361 0.0124239 -1.19393e-20)
(15.64 0.0186918 1.31356e-22)
(15.6445 0.0268302 1.10259e-22)
(15.6499 0.037502 9.11224e-21)
(15.6569 0.0517859 -6.54219e-20)
(15.666 0.0715597 9.27579e-20)
(15.6773 0.0993825 -1.82104e-19)
(15.6902 0.138482 -1.89609e-19)
(15.7027 0.19208 1.66224e-19)
(15.712 0.262735 0)
(15.7146 0.351267 8.7418e-20)
(15.7075 0.456415 0)
(15.6888 0.574489 1.07719e-20)
(15.6583 0.700602 -1.6274e-20)
(15.618 0.82816 4.96436e-21)
(15.5704 0.952906 5.9216e-20)
(15.5203 1.06693 8.74777e-21)
(15.4686 1.1739 1.42684e-20)
(15.4223 1.25606 3.16422e-20)
(15.6239 2.12565e-06 1.03619e-20)
(15.6251 0.00206311 5.01862e-22)
(15.6294 0.00395414 -3.28416e-22)
(15.6328 0.00738561 -7.44968e-21)
(15.6367 0.0120299 3.07928e-21)
(15.6409 0.0182483 0)
(15.6456 0.0263006 2.59604e-22)
(15.6514 0.0368195 -3.19963e-20)
(15.659 0.0508507 -9.12504e-21)
(15.6692 0.0702754 -9.28496e-20)
(15.6821 0.0976928 1.15646e-19)
(15.6974 0.13644 3.04371e-19)
(15.7134 0.189909 -1.59821e-19)
(15.7274 0.260888 1.46147e-19)
(15.7362 0.350434 3.16093e-20)
(15.7368 0.457502 -8.05594e-22)
(15.7272 0.578494 -5.8725e-21)
(15.7071 0.708596 -6.74088e-21)
(15.6781 0.840995 2.84116e-21)
(15.6421 0.971406 -1.41997e-20)
(15.6039 1.09133 -4.73528e-21)
(15.5634 1.20443 -5.62281e-21)
(15.5274 1.29282 0)
(15.624 -0.00020789 6.62633e-21)
(15.6252 0.00189815 0)
(15.6297 0.00364386 0)
(15.6332 0.00705491 -1.34068e-20)
(15.6373 0.0116444 -5.77357e-21)
(15.6417 0.0178102 -1.12171e-21)
(15.6466 0.0257699 3.21157e-23)
(15.6528 0.0361221 -6.82835e-22)
(15.661 0.0498715 7.51861e-20)
(15.6722 0.0688906 -2.33647e-21)
(15.6867 0.0958013 1.43609e-20)
(15.7043 0.134032 -1.09941e-19)
(15.7238 0.187122 0)
(15.7428 0.25808 -1.54311e-19)
(15.7581 0.34819 -2.51899e-19)
(15.7668 0.456628 -1.04775e-19)
(15.7669 0.579876 -5.9159e-20)
(15.7581 0.713195 0)
(15.7415 0.849543 0)
(15.7186 0.984612 3.98266e-21)
(15.6936 1.10936 -1.44034e-20)
(15.666 1.22736 2.95441e-21)
(15.6416 1.32109 0)
(15.6241 -0.000414913 -2.22955e-19)
(15.6253 0.00174025 3.12937e-22)
(15.6299 0.0033434 -2.02338e-22)
(15.6335 0.00673446 1.31036e-20)
(15.6378 0.0112653 1.47466e-20)
(15.6424 0.0173752 3.82328e-22)
(15.6476 0.0252356 -6.14716e-23)
(15.6541 0.0354076 -7.51233e-22)
(15.6629 0.0488462 9.90137e-22)
(15.675 0.0674022 0)
(15.691 0.0937017 -1.23788e-19)
(15.7111 0.131242 1.3462e-19)
(15.7341 0.183687 0)
(15.7581 0.254249 0)
(15.7801 0.344417 1.28811e-19)
(15.7974 0.453579 -1.15233e-20)
(15.8081 0.578282 6.6344e-20)
(15.8115 0.71384 6.00973e-20)
(15.8085 0.85297 -7.86356e-20)
(15.7999 0.991336 -1.81786e-20)
(15.7895 1.11944 5.76522e-20)
(15.776 1.24065 -5.07292e-20)
(15.7645 1.33839 3.00465e-20)
(15.6242 -0.000616236 1.15508e-19)
(15.6254 0.0015884 -9.33793e-21)
(15.6301 0.00305265 2.27171e-22)
(15.6339 0.00642235 -3.00665e-22)
(15.6383 0.0108906 -8.98581e-21)
(15.643 0.0169411 7.82495e-22)
(15.6485 0.0246958 -2.09061e-22)
(15.6554 0.0346743 -5.34171e-22)
(15.6647 0.0477731 1.06763e-21)
(15.6776 0.0658076 1.37197e-21)
(15.6951 0.0913874 -1.80422e-21)
(15.7176 0.128054 -1.34432e-19)
(15.7442 0.179565 1.40853e-19)
(15.7733 0.249311 -6.25397e-21)
(15.8024 0.338958 0)
(15.8289 0.448085 -3.47622e-20)
(15.8507 0.573265 1.19404e-20)
(15.8671 0.709844 -6.03621e-20)
(15.8787 0.850272 1.10501e-19)
(15.8856 0.990189 6.32459e-20)
(15.8908 1.11975 -4.09895e-20)
(15.8925 1.24201 -5.38055e-20)
(15.895 1.34197 6.78022e-20)
(15.6243 -0.00080935 3.28527e-21)
(15.6255 0.00144212 8.96139e-21)
(15.6303 0.00277178 0)
(15.6342 0.00611759 0)
(15.6388 0.0105197 0)
(15.6437 0.0165069 0)
(15.6493 0.0241491 2.24512e-22)
(15.6565 0.0339206 1.33543e-22)
(15.6663 0.0466501 -5.66432e-22)
(15.6801 0.0641023 1.46549e-21)
(15.6991 0.0888481 -1.92765e-21)
(15.7238 0.124443 0)
(15.7541 0.174706 -2.85039e-19)
(15.7885 0.243165 9.01325e-21)
(15.8249 0.331628 -1.90252e-20)
(15.8609 0.439824 1.70874e-19)
(15.8945 0.564311 -1.4538e-20)
(15.9247 0.700426 2.38506e-20)
(15.9517 0.840341 -1.42985e-20)
(15.9749 0.979681 5.14903e-20)
(15.9965 1.10842 -7.16143e-20)
(16.014 1.22916 0)
(16.0309 1.32912 5.70538e-20)
(15.6243 -0.000993558 -2.25395e-19)
(15.6256 0.00129998 4.75349e-21)
(15.6305 0.0024992 -2.29287e-22)
(15.6344 0.00581695 9.82482e-21)
(15.6392 0.010149 6.85425e-21)
(15.6442 0.0160683 3.84048e-23)
(15.6501 0.0235914 -9.92071e-21)
(15.6576 0.0331429 3.00723e-20)
(15.6678 0.0454734 5.15824e-20)
(15.6825 0.0622813 0)
(15.7028 0.0860734 3.30289e-21)
(15.7299 0.120386 -1.73619e-19)
(15.7638 0.169053 1.5478e-19)
(15.8036 0.235702 1.3791e-19)
(15.8475 0.322222 1.24078e-19)
(15.8934 0.428449 0)
(15.9392 0.550868 0)
(15.9838 0.684773 -1.21303e-19)
(16.0267 0.822057 -1.16358e-19)
(16.0665 0.958353 6.6286e-20)
(16.1048 1.08366 3.90851e-20)
(16.1382 1.20006 6.51042e-20)
(16.1693 1.29747 -8.12277e-20)
(15.6244 -0.00116583 1.11718e-19)
(15.6256 0.00116316 -4.78016e-21)
(15.6307 0.0022374 -1.21931e-22)
(15.6347 0.0055243 1.96901e-22)
(15.6396 0.00978344 -6.84007e-21)
(15.6447 0.0156309 -9.11719e-22)
(15.6508 0.0230265 5.00404e-21)
(15.6585 0.0323414 -2.95407e-20)
(15.6692 0.0442383 -5.06808e-20)
(15.6847 0.0603332 -1.77769e-21)
(15.7064 0.0830414 0)
(15.7357 0.115843 1.68905e-19)
(15.7732 0.162534 1.74058e-19)
(15.8185 0.226786 -1.45413e-19)
(15.87 0.310506 -1.05151e-19)
(15.926 0.413577 -5.5005e-20)
(15.9843 0.532361 -5.19591e-20)
(16.0435 0.662076 2.63898e-19)
(16.1024 0.79437 0)
(16.1588 0.924932 0)
(16.2134 1.04406 6.55504e-20)
(16.262 1.15322 -1.37466e-19)
(16.3065 1.24537 -1.06136e-19)
(15.6244 -0.00133365 -1.13568e-19)
(15.6257 0.00102342 0)
(15.6308 0.00197101 0)
(15.6349 0.00521666 -1.95316e-20)
(15.6399 0.00939573 6.71206e-21)
(15.6453 0.0151649 9.83107e-22)
(15.6515 0.0224304 3.08298e-22)
(15.6595 0.0315044 1.46244e-20)
(15.6706 0.042948 1.3228e-21)
(15.6868 0.0582729 -7.7379e-20)
(15.7098 0.0797721 3.69719e-21)
(15.7413 0.110827 -4.86087e-21)
(15.7823 0.155143 -1.73684e-19)
(15.8331 0.216364 1.71665e-19)
(15.8923 0.296348 1.40302e-19)
(15.9584 0.39495 -1.30765e-19)
(16.0293 0.508366 1.14135e-19)
(16.1029 0.631734 -1.42547e-19)
(16.1775 0.756529 0)
(16.2497 0.87858 0)
(16.3195 0.98879 -5.79662e-20)
(16.382 1.08802 4.85745e-20)
(16.4384 1.17227 -1.3088e-19)
(15.6245 -0.00146901 -1.28103e-21)
(15.6257 0.000908491 7.85746e-21)
(15.6309 0.00175636 0)
(15.6351 0.00497336 5.34342e-21)
(15.6401 0.00907839 -1.22848e-20)
(15.6456 0.0147636 3.06088e-23)
(15.6519 0.0218664 1.02302e-21)
(15.6602 0.0306429 -1.55278e-20)
(15.6717 0.0415548 6.34588e-22)
(15.6886 0.0560029 7.79568e-20)
(15.7128 0.0761274 -2.324e-21)
(15.7465 0.105157 -9.52787e-20)
(15.7909 0.146632 -1.25432e-20)
(15.847 0.204098 -1.61542e-19)
(15.9138 0.27929 -1.61994e-19)
(15.9899 0.371983 2.62643e-21)
(16.0731 0.478188 0)
(16.1606 0.592996 -2.38935e-20)
(16.2499 0.707844 3.12262e-20)
(16.3367 0.818794 0)
(16.4201 0.917676 7.80565e-20)
(16.4944 1.00477 -4.91938e-20)
(16.5607 1.07866 0)
(15.6245 -0.00165127 1.07697e-19)
(15.6258 0.0007441 -7.91763e-21)
(15.631 0.00144725 0)
(15.6353 0.00459871 4.38429e-21)
(15.6406 0.00862346 9.63201e-21)
(15.6462 0.0142554 -2.55017e-21)
(15.6527 0.0213151 5.46723e-21)
(15.6611 0.0299793 0)
(15.6729 0.0405743 5.53906e-20)
(15.6903 0.0543463 -7.99479e-20)
(15.7155 0.0732509 9.53824e-20)
(15.7511 0.100327 1.01132e-19)
(15.7987 0.138865 -1.98188e-21)
(15.8597 0.192178 2.60035e-21)
(15.9337 0.261721 -1.76233e-19)
(16.0194 0.347073 1.41473e-19)
(16.1144 0.443991 0)
(16.2152 0.547585 1.01738e-19)
(16.3183 0.649439 0)
(16.4182 0.746066 0)
(16.5133 0.830547 -7.92004e-20)
(16.5976 0.902963 -1.89883e-19)
(16.6716 0.963834 1.64995e-19)
(15.6245 -0.00178016 0)
(15.6258 0.000662066 -5.57767e-25)
(15.6311 0.00128986 1.54707e-24)
(15.6355 0.00442089 -2.65546e-21)
(15.6407 0.00839976 -3.26862e-21)
(15.6464 0.0139926 2.55049e-21)
(15.653 0.0209926 -2.03932e-21)
(15.6616 0.0295311 -2.89183e-23)
(15.6736 0.0398337 -2.82131e-20)
(15.6914 0.0530054 -4.27954e-22)
(15.7175 0.0707906 1.85405e-21)
(15.7546 0.0959677 0)
(15.805 0.131474 2.07669e-21)
(15.8704 0.180263 -2.72642e-21)
(15.951 0.243369 2.63508e-19)
(16.0457 0.320073 8.85715e-21)
(16.1515 0.405858 0)
(16.2643 0.495956 3.77522e-20)
(16.3793 0.582348 -3.87684e-20)
(16.4901 0.662233 0)
(16.5944 0.730221 0)
(16.6859 0.786552 1.33958e-19)
(16.7651 0.833237 -9.86223e-20)
(15.6246 -0.00190879 1.11718e-19)
(15.6259 0.000587697 -1.23049e-20)
(15.6312 0.00114367 0)
(15.6356 0.00425883 2.65471e-21)
(15.6409 0.00819487 -7.40797e-22)
(15.6466 0.0137509 7.64591e-21)
(15.6533 0.0206885 -1.85661e-21)
(15.662 0.0290938 -1.1456e-20)
(15.6743 0.0390907 -2.7232e-20)
(15.6925 0.0516385 1.21264e-19)
(15.7194 0.0682531 -9.76734e-20)
(15.758 0.0914186 -1.09693e-19)
(15.811 0.123663 -1.1248e-19)
(15.8805 0.167506 0)
(15.967 0.223493 -9.37172e-20)
(16.0695 0.290586 1.7294e-19)
(16.1845 0.364068 1.00564e-20)
(16.3068 0.439463 -1.24304e-19)
(16.4307 0.509431 0)
(16.5489 0.572036 0)
(16.6587 0.623463 0)
(16.754 0.664231 -2.20931e-19)
(16.8354 0.697411 2.06537e-19)
(15.6246 -0.00203811 -1.11718e-19)
(15.6259 0.00051377 -2.27323e-21)
(15.6313 0.000999518 0)
(15.6357 0.00409919 5.26517e-22)
(15.6411 0.00799292 1.01551e-25)
(15.6469 0.0135126 -1.28311e-20)
(15.6537 0.0203869 5.5956e-21)
(15.6625 0.0286564 3.24497e-20)
(15.675 0.03834 -4.60836e-23)
(15.6936 0.0502446 -4.05687e-20)
(15.7213 0.0656414 -5.12044e-20)
(15.7613 0.0866899 1.10324e-19)
(15.8165 0.115459 1.11554e-19)
(15.8897 0.153976 -1.11662e-19)
(15.9814 0.202251 1.88132e-21)
(16.0904 0.258948 -1.75922e-19)
(16.2127 0.319269 0)
(16.3421 0.379232 0)
(16.472 0.43242 9.70716e-20)
(16.5943 0.477878 0)
(16.7066 0.513303 0)
(16.8029 0.539523 3.4613e-20)
(16.8843 0.56026 1.05177e-19)
(15.6246 -0.00216674 0)
(15.6259 0.000439323 1.45787e-20)
(15.6313 0.000855778 1.66205e-25)
(15.6358 0.00393897 1.79743e-21)
(15.6412 0.00778967 3.99809e-25)
(15.6471 0.0132719 1.16482e-20)
(15.654 0.0200817 -3.7375e-21)
(15.663 0.0282127 -2.09831e-20)
(15.6756 0.0375765 -2.66987e-20)
(15.6947 0.04882 0)
(15.723 0.0629548 5.10194e-20)
(15.7642 0.0817893 2.39685e-22)
(15.8215 0.106892 9.73322e-23)
(15.8979 0.139752 1.11471e-19)
(15.9938 0.179825 0)
(16.1081 0.225524 9.56176e-20)
(16.2357 0.272125 -2.20464e-21)
(16.3698 0.316331 0)
(16.503 0.352871 -9.63597e-20)
(16.6269 0.381828 0)
(16.7391 0.402287 0)
(16.8343 0.41535 0)
(16.9138 0.424972 8.73321e-22)
(15.6246 -0.00229427 0)
(15.626 0.000364343 -9.52441e-21)
(15.6314 0.000712299 -1.83322e-26)
(15.6359 0.00377771 -2.32413e-21)
(15.6414 0.00758449 -5.65604e-21)
(15.6473 0.013028 -1.4044e-20)
(15.6543 0.0197717 0)
(15.6634 0.0277622 -9.03691e-21)
(15.6763 0.0368003 5.33845e-20)
(15.6956 0.0473667 -3.89765e-24)
(15.7246 0.0602001 5.28203e-20)
(15.7669 0.0767349 -5.88215e-20)
(15.8259 0.0980065 0)
(15.9048 0.124934 0)
(16.0042 0.156423 1.08751e-19)
(16.1222 0.190711 -9.35849e-20)
(16.2535 0.223325 0)
(16.39 0.251828 -1.29691e-19)
(16.5241 0.272255 -1.01438e-19)
(16.6473 0.285706 0)
(16.7575 0.292473 1.78199e-21)
(16.8499 0.293867 1.72589e-22)
(16.9265 0.293703 -5.64566e-20)
(15.6246 -0.00242079 1.00146e-25)
(15.626 0.000288729 1.99714e-20)
(15.6314 0.000569092 -6.68979e-26)
(15.636 0.00361528 0)
(15.6415 0.00737727 -1.29244e-21)
(15.6476 0.0127806 1.60648e-20)
(15.6546 0.0194572 2.148e-24)
(15.6638 0.0273053 9.02666e-21)
(15.6769 0.036013 -2.66669e-20)
(15.6965 0.045889 4.25983e-20)
(15.726 0.0573876 6.97476e-22)
(15.7692 0.0715501 1.185e-19)
(15.8296 0.0888556 -1.23389e-19)
(15.9105 0.109636 3.99082e-22)
(16.0123 0.132276 -2.20016e-19)
(16.1328 0.154927 1.00588e-19)
(16.2658 0.17355 -5.1783e-21)
(16.4028 0.186707 1.33459e-19)
(16.5358 0.191832 1.00233e-19)
(16.6563 0.190973 0)
(16.763 0.185406 5.41424e-20)
(16.8516 0.176579 0)
(16.9245 0.167872 -2.54289e-20)
(15.6246 -0.00254636 0)
(15.626 0.000212435 -1.04468e-20)
(15.6315 0.000426124 7.44077e-21)
(15.6361 0.00345162 3.65648e-26)
(15.6417 0.00716798 1.49644e-20)
(15.6478 0.0125298 -8.4871e-21)
(15.6549 0.0191381 0)
(15.6642 0.0268424 0)
(15.6774 0.0352161 -2.3785e-23)
(15.6974 0.0443907 -4.25402e-20)
(15.7272 0.054527 5.81617e-22)
(15.7711 0.0662591 -5.95548e-20)
(15.8327 0.0794954 1.22715e-19)
(15.915 0.0939785 0)
(16.0183 0.107622 1.10276e-19)
(16.1398 0.118587 -9.72295e-20)
(16.2729 0.123441 7.63824e-20)
(16.4085 0.12185 7.56072e-21)
(16.5385 0.112668 0)
(16.655 0.0987836 0)
(16.7571 0.0822339 -2.58312e-20)
(16.8411 0.0645488 -7.39637e-20)
(16.9099 0.0484349 5.23085e-20)
(15.6246 -0.00267101 0)
(15.6261 0.000135469 -4.75051e-26)
(15.6315 0.000283399 -7.43988e-21)
(15.6362 0.00328673 -3.99542e-21)
(15.6418 0.00695658 -8.01433e-21)
(15.648 0.0122754 -1.92595e-24)
(15.6552 0.0188145 -4.71174e-21)
(15.6646 0.0263738 4.0332e-21)
(15.678 0.0344107 -2.69136e-20)
(15.6981 0.0428753 0)
(15.7283 0.0516281 4.44447e-22)
(15.7728 0.0608866 -6.07255e-20)
(15.835 0.0699843 0)
(15.9181 0.0780867 -2.33848e-21)
(16.0219 0.0826987 1.15094e-19)
(16.1433 0.0820956 0)
(16.2749 0.0735965 -1.16736e-20)
(16.4074 0.0580349 -2.85781e-21)
(16.533 0.0356505 1.22551e-19)
(16.6443 0.0100523 0)
(16.7409 -0.016181 0)
(16.8198 -0.0414785 3.72754e-20)
(16.8841 -0.0639798 -1.2876e-19)
(15.6246 -0.00279471 -1.62427e-25)
(15.6261 5.78647e-05 2.14436e-25)
(15.6316 0.000140919 0)
(15.6363 0.00312062 -5.00474e-21)
(15.642 0.00674307 5.01605e-24)
(15.6482 0.0120176 -4.11609e-24)
(15.6555 0.0184864 4.71102e-21)
(15.665 0.0258998 -4.03261e-21)
(15.6785 0.0335981 2.69018e-20)
(15.6988 0.0413465 -4.32694e-20)
(15.7293 0.0487013 -5.45165e-20)
(15.7741 0.0554587 6.13025e-20)
(15.8367 0.060383 6.19543e-20)
(15.92 0.0620879 5.85686e-20)
(16.0234 0.0577435 -1.12966e-19)
(16.1432 0.0458407 5.46512e-21)
(16.2718 0.0245671 -9.31351e-20)
(16.3999 -0.00405524 -4.9045e-20)
(16.5199 -0.0384777 -5.04701e-20)
(16.6252 -0.0745028 3.79882e-20)
(16.7157 -0.1092 -4.95058e-20)
(16.7891 -0.140989 0)
(16.8488 -0.168986 4.89422e-20)
(15.6246 -0.00291746 0)
(15.6261 -2.03457e-05 -1.28328e-20)
(15.6316 -1.2982e-06 5.87814e-21)
(15.6364 0.00295331 4.02951e-21)
(15.6421 0.00652747 -5.20655e-21)
(15.6484 0.0117563 0)
(15.6558 0.0181538 1.12585e-24)
(15.6654 0.0254207 -1.48516e-24)
(15.6789 0.0327793 1.33804e-20)
(15.6994 0.0398081 6.50811e-20)
(15.7301 0.0457569 -5.4414e-20)
(15.775 0.0500023 -3.93231e-22)
(15.8376 0.0507535 5.79956e-24)
(15.9205 0.04611 -6.08447e-20)
(16.0226 0.0329898 0)
(16.1397 0.0101916 9.63144e-20)
(16.2641 -0.0231448 -7.94125e-20)
(16.3864 -0.0638258 6.38998e-20)
(16.4998 -0.109107 2.42063e-20)
(16.5984 -0.15433 3.42104e-21)
(16.6825 -0.19637 -4.79371e-20)
(16.7503 -0.233666 3.37895e-20)
(16.8053 -0.266395 4.92517e-20)
(15.6247 -0.00303926 2.54986e-20)
(15.6262 -9.91314e-05 -4.63837e-22)
(15.6317 -0.000143258 -5.87697e-21)
(15.6365 0.00278481 4.96511e-21)
(15.6422 0.00630977 1.07737e-20)
(15.6486 0.0114916 1.13845e-20)
(15.6561 0.0178169 -7.94889e-25)
(15.6658 0.0249369 1.04851e-24)
(15.6794 0.0319558 -1.33751e-20)
(15.7 0.0382641 -2.16947e-20)
(15.7307 0.042806 1.09303e-19)
(15.7756 0.0445446 -6.08966e-20)
(15.8379 0.041158 -6.26764e-20)
(15.9197 0.0302798 6.01364e-20)
(16.0196 0.00866235 -4.07714e-21)
(16.1329 -0.0245073 -8.40397e-20)
(16.2519 -0.0690892 8.13298e-20)
(16.3674 -0.120771 -9.1459e-20)
(16.4735 -0.175747 -2.52461e-20)
(16.5648 -0.229022 0)
(16.6423 -0.277402 4.94594e-20)
(16.7044 -0.319349 -6.59393e-20)
(16.7548 -0.356166 9.29019e-20)
(15.6247 -0.00316011 -2.54953e-20)
(15.6262 -0.000178469 2.01855e-20)
(15.6317 -0.000284954 -4.79769e-21)
(15.6365 0.00261515 -5.89116e-21)
(15.6424 0.00608997 -5.56579e-21)
(15.6488 0.0112233 -1.13815e-20)
(15.6564 0.0174756 -6.20188e-21)
(15.6661 0.0244486 0)
(15.6798 0.0311286 1.30307e-20)
(15.7004 0.0367183 -2.14945e-20)
(15.7311 0.0398592 -5.4593e-20)
(15.7759 0.0391129 6.08576e-20)
(15.8375 0.0316582 0)
(15.9177 0.0147203 -5.55335e-20)
(16.0145 -0.015026 4.76301e-20)
(16.123 -0.0579393 -4.59516e-20)
(16.2355 -0.112868 2.11351e-20)
(16.3435 -0.174462 3.28243e-20)
(16.4415 -0.238008 -9.05792e-20)
(16.5253 -0.298282 6.1631e-20)
(16.5959 -0.352111 0)
(16.6524 -0.397982 -1.3049e-19)
(16.6982 -0.438344 1.88881e-19)
(15.6247 -0.00328 0)
(15.6262 -0.000258336 -6.89133e-21)
(15.6317 -0.000426397 4.79757e-21)
(15.6366 0.00244432 5.89278e-21)
(15.6425 0.00586808 1.32844e-24)
(15.649 0.0109515 -5.13941e-24)
(15.6566 0.0171301 2.83959e-21)
(15.6664 0.0239562 0)
(15.6802 0.0302991 -1.30259e-20)
(15.7008 0.0351746 1.92937e-22)
(15.7314 0.0369274 0)
(15.7757 0.0337342 -3.00079e-20)
(15.8363 0.0223143 0)
(15.9144 -0.000450262 4.46456e-21)
(16.0074 -0.0378758 -1.03878e-19)
(16.1102 -0.0898164 3.5753e-20)
(16.2153 -0.15413 2.02761e-20)
(16.315 -0.22454 -8.18808e-20)
(16.4045 -0.295574 4.33866e-20)
(16.4805 -0.361887 6.37261e-20)
(16.5443 -0.420381 -1.03812e-19)
(16.5951 -0.469552 9.05675e-20)
(16.6363 -0.513007 -3.39235e-19)
(15.6247 -0.00339894 -2.51424e-20)
(15.6262 -0.000338713 -7.46191e-21)
(15.6318 -0.000567588 -1.78734e-21)
(15.6367 0.00227235 2.76283e-24)
(15.6426 0.00564407 -6.878e-24)
(15.6492 0.0106762 1.1105e-23)
(15.6569 0.0167802 3.34639e-21)
(15.6667 0.0234599 2.27055e-23)
(15.6805 0.0294683 -3.11468e-23)
(15.7011 0.033637 2.42019e-22)
(15.7315 0.0340214 -2.6727e-20)
(15.7753 0.028435 2.87682e-20)
(15.8345 0.0131842 1.60755e-21)
(15.9099 -0.0151207 -4.34974e-21)
(15.9985 -0.0597035 5.79108e-20)
(16.0948 -0.11988 0)
(16.1917 -0.192571 3.41715e-20)
(16.2824 -0.270699 5.54035e-20)
(16.3631 -0.348189 -4.21739e-20)
(16.4311 -0.419661 1.14789e-19)
(16.4879 -0.482124 -5.70952e-20)
(16.5331 -0.534061 1.32394e-20)
(16.5698 -0.58023 1.70835e-19)
(15.6247 -0.00351692 5.0155e-20)
(15.6263 -0.000419582 7.46086e-21)
(15.6318 -0.00070854 3.25294e-22)
(15.6368 0.00209922 0)
(15.6427 0.00541795 0)
(15.6494 0.0103973 7.05364e-21)
(15.6571 0.016426 3.93883e-21)
(15.667 0.02296 0)
(15.6809 0.0286376 -9.15895e-23)
(15.7014 0.032109 2.11546e-20)
(15.7315 0.0311515 2.72937e-20)
(15.7745 0.0232406 -7.60348e-22)
(15.8321 0.0043226 -2.32564e-21)
(15.9044 -0.0291876 7.26405e-21)
(15.9878 -0.0803426 -5.5197e-21)
(16.0768 -0.147903 0)
(16.165 -0.227925 -4.82513e-20)
(16.2463 -0.312681 3.35269e-21)
(16.3178 -0.395636 -1.1073e-19)
(16.3776 -0.471453 5.13314e-20)
(16.4274 -0.537259 7.65622e-20)
(16.4671 -0.5915 -1.2501e-19)
(16.4993 -0.640055 0)
(15.6247 -0.00363394 -4.9889e-20)
(15.6263 -0.000500926 2.68424e-25)
(15.6318 -0.000849254 1.46076e-21)
(15.6368 0.00192496 0)
(15.6429 0.00518969 0)
(15.6495 0.0101149 3.90356e-22)
(15.6574 0.0160676 -8.18157e-21)
(15.6673 0.0224568 0)
(15.6812 0.0278081 5.8721e-21)
(15.7016 0.0305946 0)
(15.7313 0.0283277 0)
(15.7734 0.0181752 -1.1803e-21)
(15.8291 -0.00421936 1.54991e-21)
(15.8977 -0.0425568 2.26927e-20)
(15.9755 -0.0996455 5.31984e-21)
(16.0568 -0.173685 -1.10618e-20)
(16.1356 -0.259968 4.67943e-20)
(16.207 -0.350263 0)
(16.2691 -0.437724 3.59478e-20)
(16.3206 -0.51712 0)
(16.3634 -0.585694 1.61735e-20)
(16.3974 -0.64183 2.31925e-20)
(16.4252 -0.692483 0)
(15.6247 -0.00375 3.72317e-20)
(15.6263 -0.000582728 4.26023e-21)
(15.6319 -0.000989743 0)
(15.6369 0.00174957 -4.22769e-21)
(15.643 0.00495931 4.0928e-21)
(15.6497 0.00982892 -7.44712e-21)
(15.6576 0.0157049 4.25124e-21)
(15.6676 0.0219505 -4.81141e-22)
(15.6814 0.0269809 -5.84299e-21)
(15.7017 0.0290971 -2.43557e-22)
(15.731 0.0255596 3.20589e-22)
(15.772 0.0132613 2.81877e-20)
(15.8255 -0.0123949 2.19119e-21)
(15.8902 -0.0551444 -3.35136e-20)
(15.9618 -0.117484 5.09847e-21)
(16.0348 -0.197058 0)
(16.1039 -0.288506 0)
(16.1651 -0.383255 0)
(16.2176 -0.474277 0)
(16.2606 -0.556516 -1.05221e-20)
(16.2962 -0.627312 -7.19895e-20)
(16.3247 -0.684965 7.0939e-20)
(16.3479 -0.737453 0)
(15.6247 -0.00386509 -1.23572e-20)
(15.6263 -0.000664972 -8.71231e-21)
(15.6319 -0.00113 0)
(15.637 0.00157307 4.22936e-21)
(15.6431 0.00472679 -8.44291e-21)
(15.6499 0.00953934 0)
(15.6578 0.015338 0)
(15.6679 0.0214414 4.60354e-22)
(15.6817 0.026157 0)
(15.7017 0.02762 -9.63821e-21)
(15.7305 0.022856 -1.29303e-20)
(15.7703 0.00851962 -1.43906e-20)
(15.8213 -0.0201625 2.71359e-20)
(15.8818 -0.0668775 0)
(15.9469 -0.13375 0)
(16.0112 -0.217884 9.59328e-21)
(16.0702 -0.313382 -1.25903e-20)
(16.1211 -0.411491 0)
(16.1637 -0.505131 -1.34038e-20)
(16.1981 -0.589476 1.05421e-20)
(16.2265 -0.661952 5.49171e-20)
(16.2492 -0.720759 -7.25674e-20)
(16.2678 -0.774822 0)
(15.6247 -0.0039792 1.31756e-25)
(15.6263 -0.000747638 9.09954e-21)