/*--------------------------------*- C++ -*----------------------------------*\
  =========                 |
  \\      /  F ield         | OpenFOAM: The Open Source CFD Toolbox
   \\    /   O peration     | Website:  https://openfoam.org
    \\  /    A nd           | Version:  7
     \\/     M anipulation  |
\*---------------------------------------------------------------------------*/
FoamFile
{
    version     2.0;
    format      ascii;
    class       volScalarField;
    location    "42";
    object      yPlus;
}
// * * * * * * * * * * * * * * * * * * * * * * * * * * * * * * * * * * * * * //

dimensions      [0 0 0 0 0 0 0];

internalField   uniform 0;

boundaryField
{
    inlet
    {
        type            calculated;
        value           uniform 0;
    }
    outlet
    {
        type            calculated;
        value           uniform 0;
    }
    suction_side
    {
        type            calculated;
        value           nonuniform List<scalar> 
56
(
4.29638
4.40593
4.61788
4.84764
5.44161
5.77265
6.7282
7.06062
8.40973
8.79966
10.9648
12.743
14.162
24.6461
34.1802
42.5119
48.477
51.8517
51.8535
50.4202
48.1603
45.611
43.2626
41.4429
40.4194
40.1934
40.4187
40.817
40.9878
40.8962
40.6506
40.314
39.9116
39.4788
39.0277
38.5693
38.1046
37.6279
37.1421
36.6457
36.1419
35.6351
35.1148
34.564
33.9609
33.2901
32.5496
31.7261
30.7909
29.8071
28.8437
27.9081
27.1484
26.2227
25.7681
24.8225
)
;
    }
    pressure_side
    {
        type            calculated;
        value           nonuniform List<scalar> 
56
(
25.1206
25.9767
26.3997
27.3035
28.0373
28.9282
29.8038
30.7159
31.5665
32.3284
33.009
33.6262
34.1932
34.7213
35.2129
35.685
36.1474
36.6007
37.0376
37.4597
37.8708
38.2662
38.6401
38.9909
39.3119
39.5858
39.7564
39.7668
39.5287
39.3453
39.4452
40.1132
41.5513
43.5843
45.7966
48.0492
49.9258
50.9642
50.5632
47.4199
42.0434
34.202
24.7276
15.5109
12.8182
9.41831
8.96597
7.14092
6.71548
5.60674
5.196
4.70323
4.46582
4.32385
4.24986
4.23799
)
;
    }
    trailing_edge
    {
        type            calculated;
        value           nonuniform List<scalar> 2(98.4376 97.9225);
    }
    defaultFaces
    {
        type            empty;
    }
}


// ************************************************************************* //
