/*--------------------------------*- C++ -*----------------------------------*\
  =========                 |
  \\      /  F ield         | OpenFOAM: The Open Source CFD Toolbox
   \\    /   O peration     | Website:  https://openfoam.org
    \\  /    A nd           | Version:  7
     \\/     M anipulation  |
\*---------------------------------------------------------------------------*/
FoamFile
{
    version     2.0;
    format      ascii;
    class       volScalarField;
    location    "75";
    object      k;
}
// * * * * * * * * * * * * * * * * * * * * * * * * * * * * * * * * * * * * * //

dimensions      [0 2 -2 0 0 0 0];

internalField   nonuniform List<scalar> 
12842
(
0.00569413
0.00510814
0.00474888
0.00448653
0.00431441
0.00418558
0.00410036
0.00403705
0.00399125
0.00396472
0.00393944
0.00394073
0.00395273
0.00398043
0.00401611
0.00403987
0.00406346
0.00408488
0.00410788
0.00412341
0.00413111
0.00414054
0.004146
0.00566561
0.00506127
0.00471797
0.00447556
0.00431034
0.00418252
0.00409754
0.00403362
0.00398814
0.00396188
0.00393719
0.00393929
0.00395312
0.00398119
0.00401759
0.00404631
0.00406695
0.00408863
0.00411042
0.00412291
0.00413278
0.00413971
0.00414624
0.00564032
0.00498813
0.00465818
0.00442157
0.00427064
0.00415219
0.00407479
0.00401426
0.00397367
0.0039497
0.00392935
0.00393411
0.00395181
0.00398415
0.00402561
0.00404715
0.00406835
0.00409491
0.00411183
0.00412577
0.00413607
0.00414298
0.00414466
0.00559613
0.0049505
0.00459118
0.00438204
0.00424986
0.00413796
0.00406449
0.00400562
0.0039672
0.0039442
0.00392609
0.00393161
0.00395191
0.00399147
0.0040266
0.00404683
0.00407208
0.00410053
0.00412022
0.0041333
0.00413624
0.00414247
0.00414547
0.00554153
0.00488562
0.00454843
0.00432674
0.00420128
0.00410232
0.00403855
0.00398442
0.00395171
0.00393147
0.00391891
0.0039266
0.003951
0.00399344
0.00402674
0.00405389
0.00408259
0.004102
0.00412114
0.00413388
0.00413584
0.00414179
0.00414877
0.00549315
0.0048286
0.00448953
0.00429063
0.00417972
0.00408673
0.00402714
0.00397491
0.00394472
0.00392566
0.0039155
0.00392433
0.00395036
0.00399235
0.0040339
0.00406522
0.00408438
0.00410181
0.00412101
0.00413289
0.00413818
0.00414401
0.00415426
0.00543837
0.00476967
0.00444811
0.00424831
0.00413843
0.00405486
0.00400342
0.00395523
0.00393029
0.00391385
0.00390899
0.00391989
0.00395272
0.00399757
0.0040339
0.00406646
0.00407824
0.0041014
0.00411927
0.00413162
0.00414547
0.00415666
0.00417476
0.00539011
0.00471796
0.00439549
0.0042125
0.00411815
0.00404181
0.00399377
0.00394701
0.00392421
0.00390851
0.00390562
0.00391709
0.00395219
0.00400218
0.00402968
0.00405488
0.00407867
0.00409823
0.00412227
0.00413716
0.00415399
0.004167
0.00419439
0.0053377
0.00467084
0.00436342
0.00418302
0.00409066
0.00401788
0.00397551
0.00393175
0.00391321
0.00389955
0.00390019
0.00391283
0.00395238
0.0040087
0.00402902
0.00406145
0.00408095
0.00410165
0.00413489
0.00415619
0.00417766
0.00419261
0.00422542
0.00528325
0.00461728
0.00431666
0.00415281
0.00407034
0.0040076
0.00396805
0.00392578
0.00390903
0.00389574
0.00389772
0.00391092
0.0039524
0.00401491
0.00403003
0.00405608
0.0040843
0.00410951
0.00414452
0.0041776
0.00419972
0.0042229
0.00426799
0.00522658
0.0045746
0.00428647
0.00412797
0.00405254
0.00398987
0.00395353
0.00391409
0.0039009
0.00388976
0.00389388
0.00390984
0.00395076
0.00401614
0.00403216
0.00405718
0.004095
0.00412554
0.00416916
0.00420863
0.00423744
0.00426504
0.00431463
0.00517104
0.0045271
0.00424615
0.00410244
0.00403269
0.00397898
0.00394549
0.0039088
0.00389724
0.00388675
0.00389169
0.00390956
0.00395668
0.00402845
0.00403464
0.00406048
0.00410275
0.00414507
0.00418624
0.00424594
0.00428099
0.00432083
0.0043773
0.00511623
0.0044898
0.00421981
0.00408117
0.00401816
0.00396573
0.00393337
0.00389868
0.00389018
0.00388192
0.00388887
0.00390959
0.00395722
0.00402805
0.00403946
0.00407193
0.00412296
0.00417151
0.00422708
0.00428701
0.00433221
0.00438305
0.0044505
0.00506372
0.00444842
0.00418501
0.0040596
0.00400093
0.00395439
0.00392403
0.0038939
0.00388689
0.00387953
0.00388698
0.00390998
0.00395393
0.00403042
0.00404631
0.00408242
0.00414114
0.00420305
0.00425759
0.00434655
0.00439945
0.00446171
0.00453481
0.00501322
0.00441643
0.00416348
0.00404268
0.00398739
0.00394439
0.00391453
0.00388524
0.00388049
0.0038755
0.0038849
0.0039104
0.00395337
0.00403111
0.00405602
0.00410413
0.00417278
0.00424633
0.00431583
0.00440197
0.00447131
0.00454839
0.00463551
0.00496602
0.00438031
0.00413421
0.00402428
0.00397269
0.00393406
0.00390434
0.00388071
0.00387741
0.00387354
0.00388358
0.00390927
0.00395545
0.00402572
0.00407385
0.00413
0.00420682
0.004292
0.00436649
0.00448633
0.00456116
0.00465037
0.00474644
0.00492154
0.004353
0.0041165
0.00401025
0.00396054
0.00392495
0.00389632
0.00387367
0.00387137
0.0038701
0.00388158
0.00390992
0.00395821
0.00402819
0.00408889
0.00416234
0.00425507
0.00435966
0.00444526
0.0045625
0.00465876
0.00476195
0.00487152
0.0048803
0.00432184
0.00409285
0.00399448
0.00394766
0.00391613
0.00388715
0.00386847
0.00386836
0.00386817
0.00388061
0.00390948
0.00396454
0.00404377
0.00412459
0.00421069
0.00430968
0.00442393
0.00452111
0.00467164
0.00477034
0.00488799
0.00500874
0.00484236
0.00429833
0.00407748
0.00398236
0.00393671
0.00390785
0.00387905
0.00386339
0.00386252
0.00386543
0.00387884
0.00391098
0.00397051
0.00405629
0.0041486
0.00425768
0.00437978
0.00451793
0.00462414
0.00477339
0.00489411
0.00502343
0.00515651
0.00480713
0.00427178
0.00405893
0.00396817
0.00392573
0.00389878
0.00387153
0.00385727
0.00385925
0.00386271
0.00387825
0.00391347
0.0039874
0.00409665
0.00420856
0.00433339
0.0044599
0.00460758
0.00472607
0.00490644
0.00502834
0.0051734
0.00531535
0.00477765
0.00425162
0.00404511
0.0039572
0.00391576
0.00389185
0.00386436
0.0038526
0.00385411
0.00386081
0.00387735
0.00391598
0.00400204
0.00412382
0.00424688
0.0043997
0.00455254
0.00472364
0.00485561
0.00503424
0.00517608
0.00533342
0.00549043
0.00475019
0.00422869
0.00402989
0.00394462
0.0039056
0.003883
0.00385681
0.00384771
0.0038495
0.00385773
0.00387808
0.00392944
0.0040421
0.00419165
0.00433469
0.00450409
0.00466261
0.00484477
0.00498399
0.00519202
0.00533775
0.00551146
0.00567144
0.00472715
0.00421085
0.0040175
0.00393417
0.0038965
0.00387547
0.00385104
0.00384133
0.00384607
0.00385381
0.00387902
0.00394513
0.00407658
0.00423839
0.00439418
0.00459377
0.0047755
0.00497741
0.00513709
0.0053418
0.00550119
0.0056848
0.00585671
0.00470935
0.00419312
0.0040074
0.00392519
0.00388921
0.00386911
0.00384589
0.00383772
0.00384141
0.0038549
0.00389244
0.0039888
0.00413927
0.00433313
0.00451166
0.00472682
0.00491868
0.00513002
0.00528988
0.00551797
0.00568408
0.00588265
0.00605475
0.00469456
0.00418231
0.00400057
0.00392007
0.0038838
0.00386526
0.00384195
0.0038353
0.00383747
0.00385732
0.00392183
0.00403711
0.00420226
0.00441322
0.00460699
0.00484646
0.00504928
0.00527698
0.00545933
0.00568516
0.0058657
0.0060755
0.00625154
0.00468387
0.00416988
0.00399373
0.00391465
0.00387849
0.00386029
0.00383838
0.00383111
0.00383628
0.00386702
0.0039634
0.00409709
0.00427876
0.0045213
0.00473997
0.00499251
0.00521539
0.00544994
0.00563592
0.00588357
0.0060678
0.00628411
0.0064586
0.00466897
0.00415696
0.00398662
0.00390908
0.00387416
0.00385571
0.00383608
0.00382714
0.00383784
0.0038911
0.00401463
0.00416505
0.00436486
0.00462958
0.00486469
0.00513377
0.00535111
0.00560346
0.0058063
0.00604562
0.00625119
0.00648385
0.00666283
0.00466024
0.00414565
0.00397974
0.00390396
0.00386859
0.00385286
0.00383208
0.00382749
0.00385148
0.00392881
0.00407738
0.00424318
0.00445918
0.00475207
0.00500857
0.00528318
0.00552714
0.00577899
0.00598878
0.00625903
0.00646601
0.00669567
0.00686034
0.0046459
0.0041325
0.00397185
0.0038995
0.00386296
0.00384761
0.00382758
0.00383829
0.00387949
0.00397982
0.00414727
0.00433032
0.00456835
0.00488823
0.00516021
0.00544214
0.00567075
0.00594013
0.00616747
0.0064175
0.00664133
0.00687515
0.00703811
0.00463859
0.00412058
0.00396407
0.00389371
0.00385877
0.0038421
0.00382712
0.00386401
0.00392278
0.00404324
0.00422878
0.00442564
0.00467794
0.00502046
0.0053063
0.0055863
0.00583353
0.00609279
0.00632679
0.00661318
0.00682754
0.00705341
0.00720404
0.00462476
0.00410779
0.00395622
0.00388823
0.00385427
0.00384098
0.00383519
0.00390812
0.00397662
0.0041168
0.0043149
0.00452785
0.00480461
0.00517542
0.00547192
0.00574798
0.00598868
0.00625644
0.00649513
0.00675262
0.00698652
0.00721088
0.00734814
0.00461826
0.00409692
0.00394808
0.00388469
0.00384793
0.00384865
0.00385874
0.00395881
0.00404429
0.00420063
0.00441238
0.00463758
0.00492625
0.0053161
0.00561863
0.00588909
0.0061225
0.00638083
0.0066347
0.00692115
0.00712906
0.00733376
0.0074648
0.00460514
0.00408197
0.00393869
0.00387821
0.00384272
0.00387031
0.00389585
0.0040252
0.00411961
0.00429101
0.00451062
0.00474769
0.00506035
0.00547266
0.00577563
0.00603257
0.00628048
0.00653641
0.00677585
0.00703475
0.00726792
0.00747616
0.0075965
0.00459882
0.00407359
0.00393114
0.0038711
0.00384567
0.00390772
0.00394572
0.00409713
0.00420587
0.00438969
0.0046195
0.00486732
0.00519035
0.00562171
0.0059264
0.00617378
0.00638908
0.00663792
0.00689866
0.00717757
0.00737729
0.00755745
0.00767707
0.00458588
0.00405831
0.00392351
0.00386999
0.00386154
0.00395535
0.00400647
0.00417832
0.00429685
0.00449093
0.00472384
0.00497763
0.00532228
0.00576546
0.00605752
0.00629046
0.00653216
0.00677789
0.00702108
0.00726863
0.00747973
0.00766781
0.00778027
0.00457946
0.00404956
0.0039142
0.0038795
0.00389518
0.00401595
0.00407783
0.00426585
0.00439516
0.0045985
0.00483794
0.00510123
0.005455
0.005915
0.00620527
0.00642165
0.00662404
0.00685955
0.00711366
0.00738191
0.00758726
0.00773264
0.00786467
0.00456628
0.00403488
0.00390645
0.00390118
0.00393956
0.00408294
0.00415746
0.00435703
0.00449525
0.00470407
0.00494197
0.00520612
0.00557858
0.00604371
0.0063154
0.00652252
0.00675006
0.00698533
0.00723371
0.00747382
0.00764991
0.00783573
0.00803523
0.00455957
0.00402763
0.00390669
0.00393901
0.00399733
0.00416156
0.00424555
0.0044529
0.00459904
0.00481383
0.00505438
0.005327
0.00570816
0.00617991
0.00643915
0.0066287
0.00682103
0.00705385
0.00730433
0.00754895
0.00776666
0.00795765
0.00826855
0.00454555
0.00401566
0.00391699
0.0039849
0.00406326
0.00424185
0.0043369
0.00454935
0.00470154
0.00491724
0.00515297
0.00542355
0.00581903
0.00629509
0.00654437
0.00672258
0.00693653
0.00716151
0.00740471
0.0076632
0.00787661
0.00817492
0.00875525
0.00453836
0.00400826
0.00393842
0.0040433
0.00413885
0.0043322
0.0044347
0.00464739
0.0048044
0.00502245
0.00525754
0.00553623
0.0059428
0.00641312
0.0066327
0.00680704
0.00700016
0.00724148
0.00751342
0.00777242
0.00806858
0.0086484
0.00974277
0.00452354
0.00400406
0.00397168
0.004108
0.0042203
0.00441966
0.0045313
0.0047433
0.00490323
0.00511828
0.00534697
0.00562289
0.0060376
0.00650787
0.00673652
0.00689699
0.0070976
0.00732222
0.00758824
0.0079122
0.00838209
0.00959703
0.0131377
0.00451574
0.00400885
0.00401194
0.00418237
0.0043071
0.00451473
0.00463034
0.00483839
0.00499941
0.0052134
0.00544017
0.00572493
0.00615445
0.00661415
0.00680287
0.00696262
0.00717497
0.00745025
0.00776568
0.00822653
0.00957642
0.0144999
0.029059
0.00450207
0.00401962
0.0040612
0.00425988
0.00439632
0.00460376
0.00472592
0.00492859
0.00508971
0.00529788
0.00551761
0.00580054
0.00623439
0.0066822
0.00688857
0.00705462
0.00725372
0.00752758
0.00794154
0.00887806
0.0123585
0.0271392
0.0696891
0.00449344
0.00405642
0.00411819
0.00434501
0.00448755
0.00469722
0.00482018
0.00501599
0.00517503
0.00537981
0.00559871
0.00589211
0.0063416
0.00678039
0.00696938
0.00713848
0.00738178
0.00768152
0.00827262
0.0108185
0.0232952
0.0657577
0.132993
0.00448484
0.00409574
0.00417884
0.00442865
0.00457701
0.00478294
0.00490893
0.00509696
0.00525346
0.00545076
0.00566279
0.00595671
0.00641219
0.00683013
0.00701913
0.0071948
0.00745766
0.00791925
0.00923992
0.0154068
0.0413713
0.108291
0.198664
0.00447109
0.00415102
0.00425038
0.00451808
0.00466665
0.00486974
0.00499414
0.00517332
0.00532599
0.00551885
0.00573225
0.00603871
0.00650798
0.00692
0.00712206
0.00733601
0.0076231
0.00815491
0.0106131
0.0251093
0.0738254
0.16684
0.269225
0.00446695
0.00420779
0.00431864
0.00460215
0.0047507
0.00494843
0.00507232
0.00524268
0.00539082
0.00557594
0.00578369
0.0060938
0.00657316
0.00696515
0.00717441
0.00740885
0.00778022
0.00900499
0.0146118
0.0381174
0.105054
0.217781
0.3265
0.00447331
0.00427593
0.00440017
0.00468907
0.00483392
0.0050249
0.00514607
0.00530683
0.00545043
0.00563082
0.00584223
0.00616769
0.00666087
0.00705126
0.00727501
0.0075626
0.00806971
0.00978453
0.0186897
0.0575306
0.146103
0.273879
0.398957
0.00448617
0.00434526
0.00447509
0.00477268
0.00491257
0.0050973
0.00521439
0.00536576
0.00550405
0.00567748
0.00588486
0.00621672
0.00672173
0.00709529
0.00733034
0.00766322
0.008345
0.011623
0.0271369
0.0767299
0.185794
0.333079
0.452926
0.00452131
0.00442906
0.00456725
0.00485914
0.00499262
0.0051673
0.0052809
0.00542249
0.00555571
0.0057236
0.0059354
0.00628532
0.006808
0.00717821
0.0074539
0.00791469
0.00903811
0.0141303
0.0350236
0.103673
0.231624
0.392228
0.509881
0.00455781
0.00451371
0.00465246
0.00494218
0.0050666
0.00523313
0.00533978
0.00547173
0.00560009
0.00576212
0.00597199
0.00633145
0.00686646
0.00722585
0.00751818
0.00804099
0.0094947
0.0164886
0.0491458
0.129813
0.273965
0.437844
0.550429
0.00460916
0.00460277
0.00474226
0.00501922
0.00513487
0.00529047
0.00539233
0.00551608
0.00564032
0.00579749
0.00601124
0.0063892
0.00694395
0.00730487
0.00763059
0.00837498
0.0107477
0.0222658
0.0590913
0.154524
0.306326
0.478749
0.574906
0.00465739
0.00468978
0.00482618
0.00509238
0.00519781
0.00534412
0.00543798
0.00555355
0.00567484
0.00582738
0.0060409
0.00643206
0.00700334
0.00736185
0.00772947
0.00862117
0.0116597
0.0260975
0.0748341
0.177097
0.334356
0.509542
0.594642
0.00471463
0.00477494
0.00490766
0.00515868
0.00525381
0.00538963
0.00547736
0.00558669
0.00570563
0.00585471
0.00607138
0.0064812
0.00707182
0.00744671
0.00790533
0.00910928
0.0140322
0.0338064
0.09151
0.196239
0.360042
0.521591
0.597806
0.0047687
0.00485614
0.00498393
0.00521989
0.00530455
0.0054312
0.00551094
0.00561415
0.00573231
0.00587813
0.00609579
0.00652119
0.0071303
0.00751418
0.00804305
0.00965558
0.0158881
0.0411907
0.102784
0.215532
0.374399
0.524968
0.599546
0.00482724
0.00493262
0.00505485
0.00527563
0.00534958
0.00546674
0.00553966
0.00563824
0.00575587
0.00589981
0.0061201
0.00656509
0.00719346
0.00759971
0.00827071
0.0106501
0.019732
0.0517091
0.124474
0.229728
0.384702
0.524831
0.602586
0.00488032
0.0049992
0.00511601
0.00532207
0.00538611
0.00549575
0.00556216
0.00565646
0.00577454
0.00591646
0.00613836
0.00659832
0.00724263
0.00766489
0.00849552
0.0115261
0.0228322
0.0597293
0.132955
0.231508
0.375113
0.499363
0.587752
0.00493074
0.00505712
0.00516898
0.0053629
0.00541815
0.00552017
0.00558108
0.00567225
0.0057904
0.0059318
0.00615459
0.00663039
0.00728982
0.00773333
0.00870989
0.0126017
0.0263243
0.0669155
0.137905
0.228741
0.356397
0.465099
0.55743
0.00497907
0.00511013
0.00521772
0.0053992
0.00544592
0.00554247
0.00559866
0.00568644
0.00580501
0.00594486
0.00617008
0.00666137
0.00733506
0.0077979
0.00896716
0.0137177
0.0297399
0.0742785
0.141635
0.228632
0.332846
0.426718
0.518242
0.00502655
0.00515846
0.00526194
0.00543302
0.00547237
0.00556189
0.00561353
0.00569935
0.00581744
0.00595774
0.00618398
0.0066913
0.0073781
0.00786421
0.00924201
0.0148427
0.0328668
0.0792871
0.141809
0.222566
0.30657
0.386706
0.473613
0.00507193
0.00520216
0.0053018
0.0054623
0.00549508
0.00558051
0.00562877
0.00571168
0.00582922
0.00596867
0.0061973
0.00672032
0.00741882
0.00792394
0.00950655
0.01601
0.0358412
0.0799912
0.144105
0.212608
0.279575
0.346898
0.426416
0.00511728
0.00524312
0.00533973
0.00549102
0.00551788
0.00559704
0.0056418
0.00572391
0.00583916
0.00597846
0.00620939
0.00674823
0.00745653
0.00798802
0.00976618
0.0170185
0.037112
0.0807276
0.143444
0.200006
0.252531
0.308073
0.378988
0.00515898
0.00527975
0.00537237
0.00551509
0.00553833
0.00561372
0.00565596
0.00573549
0.00584905
0.00598851
0.00622088
0.00677466
0.00749132
0.00803774
0.0100329
0.0178091
0.0377398
0.0814464
0.142707
0.186067
0.226653
0.271082
0.332691
0.00520199
0.00531484
0.00540577
0.00553986
0.00555862
0.005629
0.00566861
0.00574781
0.00585712
0.00599577
0.00623127
0.00680032
0.00752316
0.00809111
0.0102617
0.0180782
0.0382687
0.0828873
0.137474
0.171371
0.201894
0.236573
0.288294
0.00524095
0.0053476
0.00543396
0.00556093
0.00557859
0.00564491
0.0056827
0.00575951
0.0058658
0.00600314
0.00624122
0.00682282
0.00755168
0.00813416
0.0103604
0.0183715
0.038179
0.082929
0.12917
0.156705
0.178905
0.205031
0.246558
0.00527997
0.00537757
0.00546314
0.00558234
0.00559759
0.0056598
0.00569554
0.00577141
0.00587255
0.0060107
0.00625027
0.00684659
0.00757335
0.00817038
0.0104089
0.0183497
0.0382499
0.0822112
0.118953
0.142046
0.157711
0.176466
0.208271
0.00531769
0.00540818
0.00548961
0.00560189
0.005617
0.00567574
0.00571011
0.00578372
0.00588036
0.00601231
0.00625817
0.00686492
0.00759887
0.00819382
0.010444
0.0183879
0.0381569
0.0792672
0.107788
0.128004
0.138288
0.15116
0.174295
0.00535232
0.00543592
0.00551584
0.00562144
0.00563618
0.00569092
0.00572361
0.00579503
0.0058863
0.00601397
0.00626686
0.00688311
0.00761041
0.008197
0.0104388
0.0181395
0.0368957
0.0748372
0.0962272
0.114317
0.120746
0.128873
0.144609
0.00538779
0.00546264
0.00554039
0.0056392
0.00565415
0.00570628
0.00573832
0.005807
0.00589335
0.00601746
0.00627273
0.0069008
0.00761818
0.00819924
0.0104271
0.0175238
0.034807
0.0693646
0.0849018
0.101165
0.104776
0.10958
0.119338
0.00542057
0.00549147
0.00556633
0.00565844
0.00567392
0.00572296
0.00575238
0.00581899
0.00589934
0.00601995
0.00627941
0.00691272
0.00761967
0.00819523
0.010314
0.016681
0.0321992
0.0632321
0.0741431
0.0887166
0.0908336
0.0925274
0.0978309
0.00545119
0.0055148
0.00558856
0.00567528
0.00569071
0.00573706
0.00576773
0.00582899
0.00590437
0.00601898
0.00628654
0.00691481
0.00762132
0.00817325
0.0101256
0.0157062
0.0293231
0.0568023
0.0641738
0.0768476
0.0780968
0.0776637
0.0802227
0.00548267
0.00554178
0.00561389
0.00569226
0.00570991
0.00575347
0.00578058
0.00584175
0.00591229
0.00601932
0.00628795
0.00691665
0.00761784
0.00812917
0.00988394
0.014665
0.0263577
0.050329
0.0550994
0.065983
0.0664646
0.0647412
0.0658323
0.00551189
0.0055671
0.00563589
0.00571127
0.00572625
0.00576962
0.00579722
0.00585179
0.00591519
0.00601928
0.0062892
0.00691806
0.00760234
0.00807401
0.00961774
0.0136353
0.0234907
0.0440783
0.0469825
0.0561303
0.0561476
0.0539717
0.0542208
0.00553601
0.00558796
0.00565756
0.00572474
0.00574379
0.00578181
0.00580903
0.00586078
0.00591652
0.00601905
0.00628931
0.00691963
0.0075773
0.00800814
0.00933752
0.0126568
0.0208195
0.0382641
0.0398495
0.0470162
0.047254
0.0450086
0.0451857
0.00556468
0.00561533
0.00568267
0.00574336
0.00576052
0.00580037
0.00582595
0.00587419
0.00591807
0.0060188
0.00628957
0.00691659
0.00754471
0.00793666
0.00906583
0.0117641
0.018433
0.0329916
0.033708
0.0391711
0.0396502
0.0378563
0.0380941
0.00558791
0.00562986
0.00569852
0.0057587
0.00577392
0.00581162
0.00583724
0.0058795
0.00592063
0.00601888
0.00629079
0.00690591
0.00750596
0.00785965
0.00880595
0.0109783
0.0163722
0.028378
0.0285352
0.0325764
0.0332021
0.0321186
0.0329873
0.00560404
0.00563686
0.00571061
0.00576804
0.0057924
0.00581721
0.00584328
0.00588232
0.00591988
0.0060179
0.00629266
0.0068897
0.00746356
0.00778693
0.0085754
0.0103151
0.0146564
0.0244137
0.0243025
0.0272674
0.0278797
0.0277458
0.0293377
0.00561323
0.00565308
0.00571184
0.00577451
0.00580065
0.00582233
0.00584885
0.00588502
0.00592226
0.00601794
0.00629136
0.00686975
0.0074178
0.0077137
0.00836933
0.00976544
0.013281
0.0211451
0.0209522
0.0231105
0.0238465
0.024387
0.0268915
0.00561975
0.00565461
0.00572035
0.00578025
0.00580559
0.00582259
0.00585167
0.00588619
0.00591999
0.00601712
0.00629077
0.00684746
0.00737284
0.00764856
0.00819878
0.00933281
0.0121992
0.0184468
0.0183875
0.0200397
0.0209047
0.0220145
0.0251929
0.00561583
0.00565757
0.00571984
0.00577838
0.00581074
0.00582403
0.00585338
0.00588747
0.00592022
0.0060171
0.00629065
0.00682398
0.00732812
0.00759122
0.00806382
0.00900585
0.0114119
0.0163798
0.0164664
0.0178218
0.0188123
0.0203508
0.0239717
0.00561469
0.00566117
0.0057208
0.00577814
0.00581464
0.0058287
0.00585325
0.00588593
0.00592013
0.0060144
0.00629025
0.00680076
0.00728699
0.00754324
0.00796275
0.0087683
0.0108196
0.0148165
0.0151225
0.0163508
0.0174632
0.0192314
0.0231482
0.00561557
0.00566194
0.00572287
0.00578216
0.00581657
0.00582989
0.00585316
0.00588792
0.0059237
0.00601383
0.00628939
0.00677843
0.00725028
0.00750617
0.00789031
0.00860684
0.0104285
0.0137078
0.0141823
0.0153379
0.016523
0.018696
0.0229878
0.00561482
0.00566256
0.00572664
0.00577851
0.00581968
0.00583307
0.00585557
0.00588674
0.00592133
0.00601501
0.00628931
0.00675798
0.0072188
0.00747974
0.00784273
0.00849796
0.0101396
0.0129453
0.0135827
0.0147199
0.0159886
0.0184684
0.0231411
0.00561536
0.00566266
0.00572784
0.00577673
0.00581734
0.00583689
0.00586005
0.00588802
0.00592052
0.00601214
0.00628859
0.00673995
0.00719212
0.00746217
0.00781047
0.00842824
0.00996191
0.0124109
0.0132003
0.0143258
0.0156333
0.0185642
0.0239102
0.005617
0.00566499
0.00572741
0.00577571
0.0058164
0.00583334
0.00585697
0.00588967
0.00591998
0.00601168
0.00628844
0.00672415
0.00717151
0.00745119
0.00779059
0.0083784
0.009832
0.0121025
0.0130428
0.0140686
0.0154071
0.0187755
0.0237298
0.00561545
0.00566489
0.00572817
0.0057749
0.00581696
0.00583325
0.00585916
0.00588588
0.00591924
0.00601294
0.00628977
0.0067114
0.00715668
0.0074445
0.00777666
0.00834707
0.00974636
0.0118623
0.0129704
0.0139248
0.0153438
0.0190466
0.0238613
0.00561631
0.00567227
0.00572267
0.00577627
0.00581601
0.0058335
0.00585936
0.00588563
0.00591871
0.00601229
0.00628952
0.00670033
0.00714529
0.0074395
0.00776842
0.00832468
0.00968682
0.011741
0.0129169
0.0138984
0.0154014
0.019648
0.0240508
0.00560758
0.00566683
0.00572369
0.00577638
0.0058186
0.00582845
0.00585425
0.00588649
0.00591927
0.00601151
0.00628875
0.0066921
0.00713683
0.00743657
0.0077622
0.00830778
0.00971225
0.0116328
0.012911
0.0139443
0.0155842
0.0196981
0.0248254
0.00560615
0.0056656
0.00572275
0.00576958
0.00582353
0.00582566
0.0058542
0.00588289
0.00591476
0.00600948
0.00628667
0.00668466
0.00713032
0.00743352
0.00775578
0.00829443
0.0097674
0.0115975
0.0129108
0.0140341
0.0163139
0.0199123
0.0246545
0.00560885
0.00566487
0.00572068
0.00576882
0.0058181
0.00582445
0.00585281
0.00588117
0.00591378
0.00600743
0.00628493
0.0066795
0.0071258
0.00743121
0.00775128
0.0082854
0.00985978
0.0115912
0.0128886
0.0139838
0.0164173
0.0201736
0.0251594
0.00561182
0.00566887
0.00571939
0.00576608
0.00582077
0.00582736
0.00585208
0.00588008
0.00591149
0.00600451
0.00628193
0.00667433
0.00712198
0.00742763
0.00774309
0.00826843
0.0100399
0.0116487
0.012883
0.0139894
0.0165155
0.0202853
0.0247978
0.00560102
0.00566874
0.00571784
0.0057643
0.00582055
0.00582095
0.00585295
0.0058828
0.00591087
0.00599924
0.00627973
0.00667096
0.00711947
0.0074254
0.00773494
0.00825858
0.0101618
0.0118137
0.0129077
0.0141466
0.0165571
0.0203519
0.0254489
0.00559887
0.00566495
0.00571722
0.00576225
0.00581902
0.00581956
0.00584674
0.00587751
0.00590898
0.00599798
0.00627608
0.00666687
0.00711684
0.00742145
0.00772797
0.00823921
0.0104021
0.0119519
0.0129228
0.0143677
0.01694
0.0203977
0.0251722
0.00559976
0.00565727
0.00572634
0.00576763
0.00581457
0.00582048
0.00584547
0.00588253
0.00590796
0.00599736
0.00627447
0.00666469
0.00711551
0.00741868
0.00772405
0.00823322
0.010623
0.0122565
0.0130787
0.014587
0.0169562
0.0207385
0.0256103
0.00558683
0.00565476
0.00571934
0.00576025
0.0058112
0.00581948
0.00584484
0.00587742
0.00590991
0.00599708
0.00626772
0.00665861
0.00710759
0.0074107
0.00771057
0.00822373
0.0108036
0.0123927
0.0133421
0.015202
0.017307
0.0211562
0.0252185
0.00558446
0.00564318
0.00572532
0.00576339
0.00580582
0.00581375
0.00584783
0.00587946
0.00591072
0.00599761
0.00627137
0.00666333
0.00711411
0.00741486
0.00772063
0.00826833
0.0108452
0.0126664
0.013514
0.015162
0.0171783
0.021356
0.0258696
0.00558921
0.00563701
0.00572437
0.00576106
0.00579959
0.00581152
0.00584619
0.0058742
0.00590753
0.0059913
0.00625686
0.00664734
0.00709662
0.00739727
0.00770317
0.00824055
0.0108713
0.0127768
0.0136288
0.0151977
0.0171058
0.0212479
0.0247391
0.00558771
0.00563242
0.00572139
0.00575243
0.00579305
0.00580019
0.00583814
0.00586306
0.0059035
0.00598417
0.00624054
0.00662785
0.00708109
0.00737578
0.00767933
0.00821577
0.0107449
0.0126089
0.0137199
0.015441
0.0169606
0.0209153
0.024609
0.00558015
0.00562608
0.00571128
0.00574125
0.00578119
0.00579662
0.00582464
0.00585922
0.00589602
0.00597456
0.00622113
0.00660591
0.00705936
0.00735268
0.00765043
0.00816944
0.0105547
0.0125918
0.0137823
0.0152048
0.0170499
0.0206163
0.0248967
0.00557002
0.0056218
0.00570428
0.00573283
0.00576376
0.00579756
0.00582031
0.00585988
0.00588409
0.00596616
0.00620155
0.00658039
0.00703738
0.00732329
0.00761354
0.00809887
0.0102447
0.0124221
0.0137499
0.0151829
0.0174924
0.0196361
0.0245776
0.00554549
0.00562578
0.00568992
0.00572596
0.00575838
0.00579256
0.00582158
0.00585472
0.00586691
0.00595305
0.00617643
0.00655006
0.00700984
0.00729294
0.00757075
0.00803495
0.00968014
0.0121968
0.0136285
0.0151065
0.0174286
0.0201557
0.0229021
0.00553806
0.00561797
0.00567489
0.00571334
0.00576128
0.00578031
0.00581487
0.00584382
0.00586046
0.00594297
0.00615138
0.00651666
0.00697824
0.00725927
0.00752314
0.00796087
0.00945385
0.0117375
0.013446
0.0151096
0.0172633
0.0204726
0.0225109
0.00554208
0.00560531
0.00566236
0.00570925
0.00575651
0.00576389
0.00580181
0.00582788
0.00585989
0.00592846
0.00612144
0.0064761
0.00694141
0.0072229
0.00746762
0.00788257
0.00908945
0.0117105
0.0131837
0.0153342
0.0170127
0.0209753
0.0223352
0.00553057
0.00558866
0.00563491
0.0056967
0.00574299
0.00574953
0.00578766
0.0058135
0.00585145
0.00590807
0.00608701
0.00643086
0.00689831
0.0071848
0.00742424
0.00774702
0.00900133
0.0114441
0.0128762
0.0152492
0.0168652
0.0215882
0.0232796
0.00550428
0.00556192
0.00560994
0.00567965
0.00572335
0.00573439
0.00576995
0.00579464
0.00583529
0.00588755
0.00605038
0.00637653
0.00684408
0.00713935
0.00737342
0.00765129
0.00870731
0.0109239
0.0125067
0.0150304
0.0161132
0.0207211
0.0244309
0.00546723
0.00552636
0.00559187
0.00566199
0.00570136
0.00571418
0.00574968
0.00577394
0.00581642
0.0058644
0.00601172
0.00631459
0.00678688
0.00709109
0.00732038
0.00754908
0.00840889
0.0105453
0.0118498
0.0146315
0.0159454
0.0200276
0.0262098
0.00540522
0.00546604
0.00555986
0.00563806
0.00567355
0.00568751
0.00572318
0.00574595
0.00579075
0.00583182
0.00596497
0.00624389
0.00670659
0.00703496
0.00725497
0.00747918
0.00816927
0.00989134
0.0117483
0.0142928
0.0157216
0.0198306
0.0250859
0.00537721
0.00544028
0.00552399
0.00561133
0.00563793
0.00565472
0.00569563
0.00571568
0.00576292
0.00579756
0.00591889
0.00617115
0.00661943
0.00696403
0.00718011
0.00742728
0.00796326
0.00924905
0.011666
0.0141324
0.0154309
0.0202448
0.0248852
0.00532304
0.00538403
0.00548031
0.00557537
0.00559875
0.00561814
0.00566122
0.00568093
0.00572715
0.00576481
0.0058704
0.00608904
0.0065017
0.00688739
0.00709499
0.00733038
0.00776774
0.00872401
0.0109776
0.0133317
0.0149466
0.0200617
0.0263169
0.00532349
0.00538763
0.00544293
0.00553593
0.00556179
0.00558353
0.00562533
0.00564696
0.00569025
0.0057307
0.00582222
0.00600788
0.00637874
0.00677728
0.00701106
0.00723172
0.00759535
0.00830476
0.0100627
0.0125352
0.0141332
0.0178242
0.0252884
0.00528532
0.00535316
0.00540834
0.00548484
0.00551566
0.00553987
0.00557811
0.00560236
0.00564165
0.00568213
0.00576129
0.00591657
0.00623305
0.00666142
0.0068915
0.00710422
0.00741813
0.0079664
0.00915678
0.0117969
0.0128807
0.0174477
0.0243737
0.00523372
0.00530684
0.00536564
0.00543038
0.00546595
0.00549314
0.00552781
0.00555486
0.0055904
0.00562982
0.0056986
0.00582688
0.00608024
0.00650975
0.00678455
0.00697628
0.00724665
0.00768544
0.00851291
0.0105093
0.012463
0.0180335
0.0243414
0.00516404
0.00524208
0.00530437
0.00536202
0.00540051
0.00543034
0.00546163
0.00549059
0.00552278
0.00555949
0.0056191
0.0057238
0.00592253
0.00632383
0.0066202
0.00684603
0.0070646
0.00741503
0.00802316
0.00934987
0.0117488
0.0174496
0.0246282
0.00509008
0.00517221
0.00523732
0.00529188
0.00533138
0.00536375
0.00539288
0.00542324
0.00545368
0.00548747
0.00553946
0.00562491
0.00577719
0.00610464
0.00645188
0.00667712
0.00691757
0.00719969
0.00765895
0.00856325
0.0103934
0.0148889
0.0233712
0.00499973
0.0050832
0.00515014
0.00520392
0.00524274
0.0052763
0.0053034
0.00533395
0.00536264
0.00539414
0.00543729
0.00550697
0.00562312
0.00584859
0.00624272
0.00647063
0.00673547
0.00697949
0.00733819
0.00797696
0.00926066
0.0124005
0.0203878
0.00490908
0.00499271
0.00506071
0.00511505
0.00515295
0.00518737
0.00521336
0.00524386
0.00527193
0.00530156
0.00533991
0.00539459
0.00548372
0.00564027
0.00594952
0.0062856
0.00649241
0.00682554
0.00709548
0.00756199
0.00844711
0.0105096
0.0170879
0.00479791
0.00487919
0.00494725
0.00500148
0.00503781
0.00507166
0.00509601
0.0051249
0.00515164
0.00517941
0.00521213
0.00525719
0.00532275
0.00543262
0.00563179
0.00597849
0.00625631
0.0065314
0.00690242
0.00723164
0.00782417
0.00914153
0.0131386
0.00468889
0.00476816
0.00483559
0.00488948
0.00492515
0.00495875
0.00498232
0.00500983
0.00503564
0.00506247
0.00509238
0.00512944
0.00518112
0.00525887
0.00539111
0.00563925
0.00595559
0.00628394
0.00663611
0.00702806
0.00744459
0.00824582
0.0105594
0.00455191
0.00462711
0.00469254
0.00474385
0.00477789
0.00480999
0.00483163
0.00485612
0.00487965
0.00490383
0.00493018
0.00496111
0.00500054
0.00505659
0.00514484
0.00530883
0.00555098
0.0058916
0.00631979
0.00675664
0.00712326
0.00766256
0.00898814
0.00442258
0.00449545
0.0045582
0.00460714
0.00464044
0.00467212
0.00469326
0.00471559
0.0047376
0.00476045
0.00478431