/*--------------------------------*- C++ -*----------------------------------*\
  =========                 |
  \\      /  F ield         | OpenFOAM: The Open Source CFD Toolbox
   \\    /   O peration     | Website:  https://openfoam.org
    \\  /    A nd           | Version:  7
     \\/     M anipulation  |
\*---------------------------------------------------------------------------*/
FoamFile
{
    version     2.0;
    format      ascii;
    class       volScalarField;
    location    "75";
    object      nut;
}
// * * * * * * * * * * * * * * * * * * * * * * * * * * * * * * * * * * * * * //

dimensions      [0 2 -1 0 0 0 0];

internalField   nonuniform List<scalar> 
12842
(
0.00181022
0.00179647
0.00178643
0.00177073
0.00176693
0.00176166
0.00176049
0.00176086
0.00175788
0.00176169
0.00175774
0.00176524
0.00176999
0.00147619
0.000709012
0.000391486
0.000250158
0.000176526
0.000133126
0.000105022
8.58401e-05
7.28878e-05
6.27386e-05
0.00180703
0.00179188
0.00179586
0.0017793
0.00177044
0.00176239
0.00176027
0.00175994
0.0017573
0.00176105
0.00175752
0.00176535
0.00177039
0.00144195
0.00069037
0.000382441
0.000244256
0.000172887
0.000130759
0.00010337
8.47605e-05
7.23314e-05
6.2185e-05
0.00181348
0.00177577
0.00178648
0.0017808
0.00177511
0.0017636
0.0017604
0.00175808
0.00175652
0.00175931
0.00175751
0.00176543
0.0017715
0.00138586
0.000666598
0.000370475
0.000237369
0.000168796
0.000127953
0.000101508
8.34761e-05
7.16437e-05
6.14123e-05
0.00181158
0.0017867
0.00177512
0.0017739
0.00177476
0.00176399
0.00176086
0.00175752
0.00175631
0.00175851
0.00175748
0.00176535
0.00177224
0.00132645
0.000640158
0.000357312
0.000230201
0.000164467
0.000125169
9.95997e-05
8.19751e-05
7.07225e-05
6.05415e-05
0.00180945
0.001782
0.00178132
0.00177349
0.00177363
0.00176374
0.00176132
0.00175617
0.00175589
0.00175696
0.0017576
0.00176515
0.00177325
0.00127245
0.00061566
0.000345987
0.000224192
0.000160294
0.000122297
9.75816e-05
8.04637e-05
6.97348e-05
5.96701e-05
0.00180803
0.00178219
0.00177287
0.00176952
0.00177349
0.00176375
0.00176157
0.00175557
0.00175562
0.0017563
0.00175755
0.00176497
0.00177338
0.00122967
0.000598639
0.000337893
0.000219139
0.000156912
0.000119941
9.58527e-05
7.91895e-05
6.88735e-05
5.89045e-05
0.00180699
0.00178155
0.00177765
0.00176963
0.00177068
0.00176227
0.00176132
0.00175421
0.00175502
0.00175508
0.00175773
0.0017645
0.00177532
0.00120197
0.000585845
0.000331035
0.000214496
0.000153856
0.000117667
9.41575e-05
7.79916e-05
6.80801e-05
5.82929e-05
0.00180374
0.00177813
0.00177123
0.0017678
0.00177243
0.00176397
0.00176233
0.00175369
0.00175463
0.00175437
0.00175764
0.00176405
0.00177552
0.00120821
0.000587243
0.000330789
0.000214173
0.000153147
0.00011705
9.35572e-05
7.73758e-05
6.75873e-05
5.79648e-05
0.00180526
0.00177947
0.00177289
0.00176619
0.00176946
0.00176113
0.00176099
0.00175249
0.00175387
0.00175328
0.00175771
0.00176346
0.00177622
0.00121031
0.000587257
0.000330626
0.00021329
0.000152248
0.000116489
9.32172e-05
7.70699e-05
6.73538e-05
5.77993e-05
0.00179929
0.00177578
0.00176987
0.00176652
0.00177038
0.00176352
0.00176221
0.00175229
0.00175365
0.00175262
0.00175763
0.00176322
0.00177708
0.00118439
0.000573657
0.000322551
0.000208657
0.000149408
0.000114542
9.20781e-05
7.62082e-05
6.68191e-05
5.74496e-05
0.00180256
0.00177668
0.00176794
0.00176406
0.00176937
0.00176121
0.00176081
0.00175122
0.00175295
0.00175198
0.00175764
0.00176389
0.00177598
0.00116378
0.000565364
0.000318351
0.000206744
0.000148291
0.000114019
9.18911e-05
7.61784e-05
6.68791e-05
5.7531e-05
0.00179584
0.00177467
0.00176663
0.00176453
0.00176946
0.00176308
0.00176153
0.00175145
0.00175323
0.00175162
0.00175746
0.00176435
0.00177859
0.00115011
0.000558378
0.000314837
0.000204829
0.000147541
0.00011341
9.18664e-05
7.62652e-05
6.71525e-05
5.79009e-05
0.00179871
0.00177477
0.00176356
0.00176241
0.00176887
0.00176209
0.00176054
0.00175039
0.00175246
0.00175132
0.00175761
0.00176538
0.00177879
0.00113488
0.000550976
0.000311693
0.000203532
0.0001468
0.000113294
9.18326e-05
7.64344e-05
6.74647e-05
5.84065e-05
0.00179329
0.00177369
0.00176236
0.00176231
0.00176828
0.00176293
0.00176038
0.00175107
0.00175321
0.00175146
0.00175745
0.00176609
0.00177717
0.00111655
0.000543675
0.000308191
0.000201808
0.000146263
0.000112906
9.22024e-05
7.69099e-05
6.80303e-05
5.90984e-05
0.00179456
0.00177352
0.00175963
0.00176115
0.00176725
0.00176302
0.00175974
0.00175002
0.0017522
0.00175136
0.00175774
0.0017672
0.00177694
0.00110072
0.000536548
0.000305595
0.00020094
0.000146114
0.000113311
9.25403e-05
7.75498e-05
6.87753e-05
6.01074e-05
0.00179122
0.0017724
0.00175852
0.00176068
0.00176616
0.00176346
0.00175879
0.00175103
0.0017532
0.00175184
0.00175792
0.00176726
0.00177759
0.00108212
0.000530464
0.000303168
0.000200053
0.000146118
0.000113591
9.36068e-05
7.86247e-05
6.98553e-05
6.13936e-05
0.00179125
0.00177205
0.00175644
0.00176001
0.00176517
0.00176349
0.00175803
0.0017502
0.00175198
0.00175185
0.00175821
0.00176842
0.00177892
0.00106644
0.000524829
0.000301363
0.000199979
0.000147075
0.000114769
9.46295e-05
8.00273e-05
7.12579e-05
6.30764e-05
0.00178912
0.00177078
0.00175608
0.00175933
0.00176391
0.00176401
0.00175692
0.00175096
0.0017529
0.00175241
0.00175879
0.00176886
0.00178117
0.00105232
0.000520379
0.000300637
0.000200466
0.000147941
0.000116061
9.66011e-05
8.19348e-05
7.31315e-05
6.51653e-05
0.00178919
0.00177005
0.00175442
0.00175896
0.00176314
0.00176392
0.00175567
0.00175077
0.0017517
0.0017528
0.00175918
0.00177029
0.00178352
0.00104034
0.000517805
0.000299901
0.000201559
0.000150246
0.000118306
9.86815e-05
8.44513e-05
7.55823e-05
6.78575e-05
0.00178699
0.00176869
0.00175503
0.00175795
0.00176244
0.0017637
0.00175487
0.0017509
0.00175225
0.00175304
0.00175998
0.00177205
0.00179112
0.00103081
0.000516345
0.000301376
0.000203901
0.000152541
0.000121
0.000101924
8.77462e-05
7.87507e-05
7.12437e-05
0.00178807
0.00176768
0.00175363
0.00175758
0.00176158
0.00176385
0.00175377
0.00175089
0.00175142
0.00175393
0.00176072
0.00177362
0.00179569
0.00102321
0.000517342
0.000302474
0.000206714
0.000156447
0.000124891
0.000105493
9.18514e-05
8.26659e-05
7.53866e-05
0.00178542
0.00176622
0.00175462
0.00175679
0.00176147
0.00176305
0.00175299
0.0017511
0.00175117
0.00175403
0.00176203
0.00178045
0.00181315
0.00101776
0.000516274
0.00030647
0.000211334
0.000160695
0.000129355
0.000110374
9.69578e-05
8.76585e-05
8.03971e-05
0.00178726
0.00176493
0.00175365
0.00175616
0.00176032
0.00176267
0.00175239
0.00175048
0.00175113
0.00175394
0.00176351
0.00178759
0.00182873
0.00102187
0.000522929
0.000310813
0.00021636
0.000166323
0.00013506
0.000115629
0.000102673
9.34218e-05
8.64462e-05
0.00178514
0.00176335
0.00175417
0.00175555
0.00176051
0.00176169
0.00175215
0.00175029
0.00175026
0.00175575
0.00177048
0.00180791
0.00185435
0.00102028
0.00052541
0.000317045
0.000223351
0.000172903
0.000141569
0.000122571
0.000109941
0.000100778
9.39629e-05
0.00178621
0.00176195
0.00175446
0.00175542
0.00175952
0.00176112
0.00175155
0.0017503
0.00174922
0.00175786
0.00178464
0.00182984
0.00188411
0.00100989
0.000522133
0.000321409
0.000229296
0.000179926
0.000149325
0.000130206
0.000118112
0.000109271
0.000102836
0.00178547
0.00176074
0.00175426
0.00175509
0.00175884
0.00175969
0.00175117
0.00174906
0.00174936
0.00176323
0.00180438
0.00185716
0.0019165
0.00100831
0.000525279
0.000329386
0.000238496
0.000189159
0.000158457
0.000139827
0.000127874
0.000119103
0.000112853
0.00178597
0.00175859
0.00175472
0.0017548
0.00175803
0.00175862
0.00175114
0.00174819
0.00175087
0.00177505
0.00182867
0.00188804
0.00195652
0.00101091
0.000531329
0.000337842
0.000246661
0.000198068
0.000167902
0.00014912
0.000138028
0.000130078
0.00012462
0.00178595
0.0017571
0.00175424
0.00175434
0.00175671
0.00175792
0.00175018
0.00174893
0.0017578
0.00179335
0.00185834
0.00192352
0.00199872
0.00101316
0.000540511
0.000349358
0.000258616
0.000209716
0.000179583
0.000161582
0.000150594
0.000142664
0.000137314
0.00178601
0.00175496
0.00175443
0.00175484
0.00175513
0.00175637
0.00174927
0.00175519
0.0017717
0.00181779
0.00189121
0.00196311
0.00204774
0.00102119
0.000555014
0.000361709
0.000269412
0.000220402
0.000190828
0.000172729
0.000162734
0.000155812
0.000151512
0.00178664
0.00175245
0.0017534
0.00175373
0.00175418
0.00175434
0.00174989
0.00176784
0.00179267
0.00184813
0.0019293
0.00200682
0.00209543
0.00103553
0.000570422
0.000377066
0.000283651
0.000233859
0.000204166
0.000187129
0.000177139
0.000170081
0.000165996
0.00178609
0.00175038
0.0017534
0.00175392
0.00175309
0.00175464
0.00175543
0.00178987
0.00181887
0.0018831
0.00196921
0.00205288
0.00214996
0.00106246
0.000597515
0.000395729
0.000297824
0.000246329
0.000216606
0.000199432
0.000190598
0.000184547
0.000181166
0.00178723
0.00174762
0.00175188
0.00175389
0.00175127
0.00175889
0.00176738
0.00181483
0.00185132
0.0019229
0.00201372
0.00210099
0.00219107
0.0011015
0.00062044
0.000413439
0.000313592
0.000261607
0.000231391
0.000215131
0.000205652
0.000198715
0.000196154
0.00178623
0.00174446
0.00175077
0.00175352
0.00175059
0.00176971
0.00178699
0.00184717
0.00188757
0.00196479
0.0020573
0.00214238
0.00223331
0.0011468
0.000656358
0.00043836
0.000331661
0.000275305
0.000244158
0.000227678
0.000219561
0.000213818
0.000211161
0.00178751
0.00174233
0.00174906
0.00175226
0.0017537
0.00178864
0.00181165
0.00188187
0.00192856
0.00200952
0.00209908
0.00217658
0.00224901
0.00121062
0.000690248
0.000458831
0.00034821
0.000292237
0.000260022
0.000243921
0.000234621
0.000226777
0.000225437
0.00178608
0.00173871
0.0017482
0.00175461
0.00176352
0.00181199
0.00184153
0.00192113
0.00197061
0.00205246
0.00213206
0.00219788
0.00226911
0.00127076
0.000730416
0.000488052
0.000369429
0.000306678
0.000272976
0.000256217
0.000247745
0.000241108
0.00023915
0.00178738
0.0017363
0.00174528
0.00176113
0.00178148
0.00184158
0.00187612
0.00196186
0.00201435
0.00209
0.0021581
0.00221175
0.00226421
0.00135676
0.000776545
0.000512966
0.000387651
0.000324849
0.000289245
0.000272485
0.000262523
0.000252713
0.000250877
0.0017854
0.00173277
0.00174401
0.00177502
0.00180491
0.00187414
0.00191436
0.00200305
0.002054
0.00211979
0.00217422
0.00221325
0.00226521
0.00142962
0.000818869
0.000543246
0.000409312
0.000339855
0.000302675
0.000285054
0.000274928
0.000264137
0.000261558
0.00178681
0.00173101
0.00174519
0.00179476
0.00183404
0.00191264
0.00195423
0.00204111
0.00208719
0.00214148
0.0021823
0.00220846
0.00224636
0.00153337
0.000875608
0.000575039
0.000431761
0.000359363
0.000320034
0.000301432
0.00028802
0.000274109
0.000273329
0.00178399
0.0017287
0.00175198
0.00182029
0.00186757
0.00195023
0.00199213
0.0020722
0.00211157
0.00215396
0.00218166
0.00219578
0.00223547
0.00161464
0.000919007
0.000603093
0.000451366
0.000374925
0.000333915
0.000315133
0.000301975
0.000285794
0.000291202
0.00178546
0.00172705
0.00176283
0.0018497
0.0019035
0.00199115
0.00202573
0.0020954
0.00212752
0.00215836
0.0021741
0.00217868
0.00221103
0.00173307
0.000984144
0.000642833
0.000479292
0.000397543
0.000354716
0.000335441
0.000316589
0.000305442
0.000321425
0.00178196
0.00172848
0.00178056
0.00188328
0.00194279
0.00202648
0.0020511
0.0021097
0.00213448
0.00215466
0.00216058
0.00215857
0.00219442
0.00181864
0.0010291
0.000670719
0.000500134
0.000414565
0.000373202
0.000352792
0.000336092
0.000335833
0.000417538
0.00178325
0.00173284
0.0018003
0.0019189
0.00198116
0.00205808
0.00206957
0.00211578
0.00213327
0.00214457
0.00214276
0.00213652
0.00217076
0.00194729
0.00110022
0.000714622
0.000533313
0.000443867
0.000396008
0.000387339
0.000382044
0.000495504
0.00103901
0.00178046
0.00174138
0.00182642
0.00195731
0.0020163
0.00207913
0.0020792
0.002114
0.00212554
0.00212905
0.0021216
0.00211451
0.00215369
0.00203646
0.00114782
0.000746919
0.000557612
0.000467745
0.0004402
0.00042958
0.000517573
0.00122737
0.00231015
0.0017812
0.00176128
0.00185365
0.00199658
0.00204479
0.00209458
0.00208208
0.00210561
0.00211148
0.00210967
0.00209947
0.00209296
0.00213289
0.00212724
0.00122829
0.000803127
0.00060593
0.000510846
0.000476613
0.00059312
0.00124694
0.00209886
0.00252311
0.00178138
0.00178244
0.00188409
0.00203438
0.00206548
0.00209926
0.00207804
0.00209244
0.00209423
0.00208773
0.00207564
0.00207292
0.0021197
0.00211134
0.00127943
0.000839407
0.000640313
0.000556627
0.000626685
0.000959041
0.00169128
0.00213251
0.00248464
0.00178016
0.00181065
0.00191618
0.002068
0.00207886
0.00209936
0.00206943
0.00207547
0.00207313
0.00206459
0.00205368
0.00205472
0.00210176
0.00208624
0.00136968
0.000913752
0.000715585
0.00066439
0.000814039
0.00147975
0.00191533
0.00219658
0.00250325
0.0017828
0.0018391
0.00194789
0.00209377
0.00208412
0.00209089
0.00205674
0.00205651
0.00205159
0.00204114
0.00203096
0.0020387
0.0020941
0.00207348
0.00143252
0.000967582
0.000775164
0.00078052
0.00130407
0.00156445
0.00184364
0.00213524
0.00253112
0.00179053
0.00187286
0.00197861
0.00211273
0.00208364
0.00208043
0.00204231
0.00203697
0.00202907
0.00201863
0.00201189
0.00202526
0.00207938
0.00205154
0.00154425
0.00107517
0.000921506
0.00111794
0.00125932
0.00160588
0.00189501
0.00216965
0.00274216
0.00180123
0.0019063
0.00200427
0.00212519
0.00207787
0.00206477
0.00202593
0.00201663
0.00200693
0.00199669
0.00199215
0.00201324
0.00207595
0.0020404
0.00162998
0.00115697
0.00103659
0.00127387
0.00139427
0.00160901
0.00185727
0.00236918
0.00294145
0.00182025
0.00194326
0.00202744
0.00213048
0.00206746
0.00204769
0.00200904
0.00199719
0.00198537
0.00197609
0.00197586
0.00200432
0.00206578
0.00202201
0.00176326
0.00131282
0.00130485
0.00122943
0.00134235
0.00167167
0.00192176
0.00263681
0.00324559
0.00184077
0.0019785
0.00204418
0.00213004
0.00205448
0.00202937
0.00199228
0.0019784
0.0019653
0.00195762
0.00196029
0.00199629
0.00206419
0.00201335
0.00184118
0.00141128
0.00132775
0.00127953
0.00160481
0.00172711
0.00204462
0.00282634
0.00340387
0.00186484
0.00201086
0.00205489
0.00212223
0.00203845
0.00201013
0.00197612
0.00196205
0.00194762
0.00194166
0.00194816
0.00199163
0.0020593
0.00199725
0.00180562
0.00155571
0.00134503
0.00145981
0.00159182
0.00177593
0.0021392
0.00300604
0.00350918
0.00188697
0.002035
0.00206098
0.00211155
0.00202236
0.0019921
0.00196088
0.00194637
0.0019312
0.00192787
0.00193702
0.00198743
0.00205956
0.00199035
0.00179109
0.0015413
0.00137346
0.00158567
0.00185336
0.00181939
0.00222401
0.00311254
0.0035427
0.00191157
0.0020514
0.00206082
0.00209541
0.00200431
0.00197328
0.00194591
0.00193192
0.00191698
0.00191624
0.00192849
0.00198567
0.00205774
0.00197722
0.0017679
0.00153085
0.00152594
0.00184628
0.00200494
0.00186052
0.00233929
0.00314507
0.00349192
0.00193329
0.00205952
0.00205702
0.00207795
0.00198704
0.00195626
0.00193195
0.00191785
0.00190435
0.00190651
0.00192103
0.00198425
0.00205827
0.00196862
0.00175284
0.00156065
0.00165754
0.00211543
0.00207943
0.001901
0.00232058
0.00306718
0.00342822
0.0019539
0.00205946
0.00204775
0.0020572
0.00196867
0.00193888
0.00191795
0.00190452
0.00189367
0.00189825
0.0019154
0.0019846
0.00205759
0.00195545
0.00174145
0.00164305
0.00193509
0.00239579
0.00219907
0.00189517
0.00235251
0.0029828
0.0033634
0.00196589
0.00205189
0.00203551
0.00203691
0.00195244
0.00192435
0.00190603
0.0018934
0.00188566
0.00189188
0.00191103
0.00198472
0.00205743
0.00194617
0.001747
0.00172644
0.00215796
0.0025115
0.00216115
0.00191529
0.00226496
0.00284637
0.00327985
0.0019727
0.00204058
0.00202121
0.00201701
0.00193709
0.00191071
0.00189457
0.00188357
0.00187881
0.00188635
0.00190736
0.00198536
0.00205694
0.00193686
0.00175271
0.00183924
0.00230297
0.00251387
0.00205071
0.00189071
0.00216399
0.00265207
0.00310319
0.00197503
0.00202546
0.00200527
0.00199711
0.00192292
0.0018987
0.00188446
0.00187508
0.0018734
0.00188145
0.00190439
0.00198629
0.00205615
0.00192664
0.00175844
0.00191687
0.00237315
0.00241953
0.00197385
0.00188548
0.00200918
0.00242829
0.00287674
0.00197423
0.00200935
0.00198892
0.00197876
0.00191011
0.00188788
0.00187478
0.00186803
0.00186869
0.00187731
0.00190193
0.00198744
0.0020548
0.00191493
0.00176963
0.00197042
0.00230267
0.00226721
0.00185742
0.00183027
0.00187009
0.00220183
0.00260894
0.001971
0.00199183
0.00197216
0.00196096
0.00189881
0.00187891
0.00186689
0.00186224
0.0018652
0.00187369
0.00189987
0.0019889
0.00205289
0.00190151
0.00175881
0.00197476
0.00220829
0.00201134
0.00180695
0.00174996
0.00170662
0.00196746
0.00235628
0.00196621
0.00197564
0.00195675
0.00194593
0.00188916
0.00187138
0.00185965
0.00185794
0.00186198
0.00187029
0.00189823
0.00199038
0.00205029
0.0018863
0.00174888
0.00193423
0.00198824
0.00183971
0.00175356
0.00164543
0.00153623
0.00176469
0.00208541
0.0019601
0.00195978
0.00194158
0.00193166
0.00188117
0.00186549
0.00185415
0.00185438
0.00185983
0.00186782
0.00189671
0.00199192
0.00204682
0.0018686
0.00172161
0.00183231
0.0017724
0.00169442
0.00171577
0.00153038
0.00140412
0.00155469
0.00184904
0.0019541
0.00194616
0.00192888
0.0019205
0.0018746
0.00186105
0.00184952
0.00185214
0.00185758
0.00186507
0.00189551
0.00199357
0.00204311
0.0018487
0.00168683
0.00168708
0.00158762
0.00166251
0.00163707
0.00140004
0.0012932
0.00135445
0.00160394
0.00194724
0.00193456
0.00191709
0.00191043
0.00186966
0.00185778
0.00184633
0.0018503
0.00185628
0.00186282
0.00189439
0.00199464
0.00203835
0.00182914
0.00162042
0.00154226
0.00143859
0.00163705
0.00152369
0.00129386
0.00119715
0.00119685
0.00136928
0.00194146
0.00192427
0.00190757
0.00190282
0.00186588
0.00185572
0.00184389
0.00184931
0.00185466
0.0018613
0.00189342
0.00199644
0.00203281
0.00180473
0.00154876
0.00139489
0.00133927
0.00158049
0.00141452
0.00119666
0.00110729
0.00106871
0.0011804
0.00193559
0.00191734
0.00190007
0.00189671
0.00186325
0.00185451
0.00184274
0.00184869
0.00185385
0.00185818
0.00189251
0.00199699
0.00202823
0.00177984
0.00147177
0.0012872
0.00127616
0.00152491
0.00127728
0.00110505
0.00101845
0.000961222
0.00103042
0.00193099
0.00191069
0.00189395
0.00189228
0.00186197
0.00185412
0.00184189
0.00184853
0.00185269
0.00185561
0.0018919
0.00199773
0.00202108
0.00174934
0.001395
0.00117856
0.00120105
0.00143366
0.00113683
0.00101226
0.000931235
0.00086505
0.000902826
0.00192679
0.00190656
0.00188999
0.00188897
0.00186084
0.0018542
0.00184224
0.00184844
0.00185211
0.00185378
0.00189099
0.00199878
0.00201336
0.00171864
0.00133269
0.00109246
0.00112287
0.00130273
0.00101478
0.000919767
0.000843425
0.00078039
0.000794748
0.00192449
0.00190346
0.00188746
0.00188729
0.00186129
0.00185516
0.00184234
0.00184926
0.00185143
0.00185219
0.00189006
0.00199826
0.00200463
0.00169064
0.00126407
0.00101554
0.00103439
0.00119246
0.000886729
0.000830985
0.000763264
0.000700552
0.000698689
0.00192144
0.00190053
0.00188588
0.00188586
0.00186132
0.00185588
0.00184395
0.00184913
0.00185066
0.00184912
0.00188972
0.00199486
0.00199757
0.00165895
0.00121231
0.000953588
0.000937101
0.00106123
0.000764393
0.000745717
0.000684652
0.000629092
0.000620138
0.00192137
0.00189892
0.0018857
0.00188532
0.00186215
0.00185723
0.00184417
0.00185055
0.00185088
0.00184759
0.00188728
0.00199188
0.00198934
0.00163391
0.00116808
0.000886322
0.000844372
0.000949314
0.000664994
0.000669669
0.000612228
0.000563304
0.000552936
0.00192021
0.00189736
0.00188607
0.00188577
0.00186315
0.001859
0.00184667
0.00185111
0.00184982
0.0018459
0.00188719
0.00198841
0.00198106
0.00161456
0.00112854
0.000819848
0.000749743
0.000831242
0.000587736
0.000603144
0.000546262
0.000508862
0.000500269
0.0019194
0.00189504
0.0018861
0.00188472
0.00186336
0.00185944
0.00184713
0.00185128
0.0018484
0.00184565
0.00188688
0.00198554
0.00197277
0.00159424
0.0010945
0.000752738
0.00066265
0.000718612
0.000526831
0.000542006
0.000491316
0.00046232
0.000459699
0.00191971
0.00189414
0.00188831
0.00188556
0.00186477
0.00186158
0.00184951
0.00185337
0.00184683
0.00184521
0.00188681
0.00198238
0.00196351
0.00157986
0.00106124
0.000699307
0.000593946
0.000629421
0.000479188
0.000491938
0.00044673
0.000427444
0.000429718
0.00191887
0.00189007
0.00188726
0.00188501
0.00186388
0.001862
0.00185046
0.00185244
0.00184641
0.00184416
0.00188707
0.00197753
0.00195249
0.0015605
0.0010296
0.000657927
0.000546428
0.000565734
0.000442918
0.000451737
0.000414316
0.00040221
0.000412416
0.00191646
0.00188302
0.00188487
0.0018824
0.00186512
0.00185964
0.00184903
0.001851
0.00184408
0.00184419
0.00188759
0.00197297
0.00194172
0.00154724
0.00100065
0.00063607
0.000516476
0.000519748
0.000418107
0.000423955
0.000392328
0.000389705
0.000405499
0.00191033
0.00187926
0.0018798
0.00187942
0.00186359
0.00185776
0.00184833
0.00184992
0.00184335
0.00184347
0.00188703
0.00196712
0.00192905
0.00153199
0.000985224
0.000629269
0.000501065
0.000488996
0.000404681
0.000407569
0.000383855
0.000387783
0.000408682
0.00190524
0.00187164
0.00187602
0.00187471
0.00185973
0.00185371
0.00184624
0.00184702
0.00184166
0.00184377
0.00188611
0.00195984
0.00191808
0.00152286
0.000986655
0.000636497
0.000499112
0.000470269
0.000403049
0.000405026
0.000387284
0.000396895
0.000418727
0.00189543
0.00186342
0.00187032
0.00186862
0.00185747
0.00184988
0.00184342
0.00184551
0.00183902
0.00184374
0.00188653
0.00195359
0.0019068
0.00152334
0.00100166
0.000656054
0.000509463
0.000464702
0.000412319
0.000414645
0.000402065
0.000414849
0.000433106
0.00188413
0.0018563
0.00186487
0.00186222
0.00185304
0.0018459
0.0018405
0.00184099
0.00183787
0.00184299
0.00188605
0.00194663
0.00189921
0.00153287
0.00102881
0.00068714
0.000529319
0.000471545
0.000432725
0.000436601
0.000427363
0.000439111
0.000451653
0.00187583
0.00184615
0.00185745
0.00185454
0.00184758
0.00184063
0.00183491
0.00183764
0.00183838
0.0018425
0.00188652
0.00194102
0.00189521
0.00154936
0.00106571
0.000728897
0.00055763
0.000489802
0.000462027
0.00046685
0.000457044
0.000469025
0.000479664
0.00186256
0.00183748
0.00185192
0.00184749
0.00184406
0.00183615
0.00183474
0.00183679
0.00183638
0.00184298
0.00188656
0.00193532
0.00189456
0.00157255
0.00111103
0.000778693
0.000589191
0.000518794
0.00049805
0.000501576
0.00048961
0.000499919
0.000510723
0.00185462
0.00183149
0.0018444
0.00183963
0.00183898
0.00183535
0.00183508
0.00183653
0.00183554
0.00184235
0.00188617
0.00193004
0.00189676
0.00160002
0.00116217
0.00083464
0.000622903
0.000552297
0.00053724
0.000538413
0.00052143
0.000534912
0.000552823
0.00185085
0.00183161
0.00184118
0.00183594
0.00183851
0.00183334
0.00183225
0.00183632
0.00183457
0.00184238
0.00188702
0.00192696
0.00190172
0.00163049
0.00121711
0.000891109
0.000653208
0.000592159
0.000578969
0.000569837
0.000546135
0.000563538
0.000569529
0.00184705
0.00183026
0.00184018
0.00183329
0.00183814
0.00183186
0.00183259
0.00183285
0.00183509
0.00184217
0.00188675
0.00192521
0.00190881
0.00166222
0.00127339
0.000946624
0.00067941
0.000626866
0.000616413
0.000598467
0.000570799
0.000590047
0.000591887
0.00184523
0.00183097
0.00183597
0.00183281
0.00183703
0.00183248
0.00183237
0.00183298
0.00183493
0.00184295
0.00188751
0.00192491
0.00191707
0.00169369
0.00132857
0.000996403
0.000700828
0.000661338
0.000647402
0.000623353
0.000592221
0.000620343
0.000614829
0.00184017
0.00182648
0.00183345
0.00183333
0.00183772
0.00183092
0.00183022
0.00183155
0.001834
0.00184285
0.00188735
0.00192513
0.00192558
0.00172368
0.00137933
0.00103834
0.000721446
0.000686139
0.000671362
0.000644192
0.000614366
0.000633334
0.000651652
0.00184179
0.00182524
0.00183433
0.00183057
0.00183915
0.00182932
0.00183021
0.0018315
0.00183363
0.0018417
0.00188622
0.00192622
0.00193421
0.00175106
0.00142427
0.00107203
0.000741188
0.00070873
0.000689893
0.000664477
0.00065781
0.000651025
0.000665252
0.00184135
0.00182387
0.00183229
0.00183051
0.00183578
0.00182892
0.0018284
0.00183101
0.00183345
0.00184117
0.00188593
0.0019272
0.00194187
0.00177486
0.00146032
0.00109726
0.000757726
0.0007267
0.000702308
0.000673939
0.000669592
0.000665615
0.000691361
0.00184126
0.00182765
0.00183403
0.00182918
0.00183822
0.00182868
0.00182853
0.00183003
0.00183272
0.00184076
0.00188588
0.00192876
0.00194926
0.00179493
0.00149018
0.00111597
0.000780281
0.000742293
0.000714044
0.000681975
0.00068643
0.000679146
0.000688669
0.00184083
0.00182749
0.00183291
0.00183062
0.00183795
0.00182829
0.00182728
0.00183025
0.00183261
0.00183972
0.00188652
0.00192972
0.00195486
0.00181052
0.00150979
0.00112824
0.000797436
0.00076513
0.000722155
0.000696281
0.000691152
0.000688139
0.000712365
0.00183968
0.00182506
0.00183287
0.00183018
0.00183547
0.0018277
0.00182681
0.00183022
0.00183195
0.00184006
0.00188711
0.00193128
0.00196025
0.00182283
0.00152583
0.00113804
0.000824233
0.000780108
0.000728474
0.000711716
0.000716308
0.000699491
0.000716315
0.00183848
0.00182313
0.00183627
0.00183221
0.00183597
0.00182701
0.0018267
0.00183197
0.00183208
0.00184077
0.001887
0.00193198
0.00196401
0.00183131
0.00153602
0.00114313
0.000845256
0.000808271
0.000741384
0.000729438
0.000711581
0.000717621
0.000737301
0.00183336
0.00182172
0.00183415
0.00182988
0.00183274
0.00182868
0.00182664
0.00183005
0.00183266
0.00184006
0.00188583
0.00193281
0.00196532
0.00183485
0.00154166
0.001152
0.000869381
0.000820193
0.000760844
0.000768702
0.000724221
0.000729388
0.000747579
0.00183654
0.00182091
0.00183578
0.00182997
0.0018327
0.00182687
0.00182708
0.00183265
0.00183336
0.00183958
0.00188625
0.00193385
0.00196706
0.00183359
0.00153745
0.0011467
0.000864663
0.000832564
0.000766226
0.000758172
0.000707571
0.000725879
0.000775507
0.00183808
0.00181917
0.00183607
0.00183222
0.00182961
0.0018254
0.00182901
0.00183146
0.00183295
0.0018384
0.00188362
0.00193397
0.00196955
0.00184727
0.00156426
0.00118134
0.000897273
0.0008543
0.000781217
0.000767281
0.000723607
0.00073289
0.000768461
0.00183572
0.00181883
0.0018355
0.00183033
0.00182858
0.00182327
0.00182726
0.00182714
0.00183141
0.00183714
0.00188065
0.0019332
0.00197242
0.00185897
0.001589
0.00121631
0.000920596
0.000854774
0.000799751
0.000791819
0.000729029
0.000737032
0.000789399
0.00183275
0.00181782
0.00183442
0.00182705
0.00182498
0.00182281
0.00182488
0.00182655
0.00183002
0.00183621
0.0018778
0.0019324
0.00197422
0.00187078
0.00161429
0.00125085
0.000941356
0.000869212
0.000823678
0.000798282
0.0007537
0.00075184
0.000829022
0.00183164
0.00181589
0.00183366
0.00182921
0.00182106
0.00182483
0.00182485
0.00182882
0.0018301
0.00183646
0.00187519
0.00193081
0.00197651
0.00188155
0.00163976
0.00128519
0.00095837
0.000871734
0.000846154
0.000822023
0.000778956
0.000747952
0.000856458
0.00182662
0.00181932
0.0018336
0.00182814
0.00182189
0.00182754
0.00182735
0.00183106
0.00182643
0.00183591
0.00187205
0.0019287
0.00197848
0.00189361
0.00166687
0.00132551
0.000960342
0.000873212
0.000843205
0.000848778
0.000798832
0.000809123
0.000843142
0.00183066
0.00181994
0.00182876
0.00182215
0.001826
0.00182608
0.00182676
0.00183346
0.00182958
0.00183574
0.0018692
0.00192625
0.0019802
0.0019061
0.00169588
0.00137031
0.00100457
0.000879732
0.00083381
0.000857151
0.000814722
0.000870233
0.000883832
0.00184194
0.00182058
0.00182882
0.00182315
0.00182763
0.00182601
0.00182209
0.0018304
0.00182893
0.00183486
0.00186576
0.00192286
0.00198226
0.00192011
0.00172668
0.00142145
0.00104792
0.000927474
0.000842625
0.000867869
0.000833108
0.000941558
0.000935182
0.00184138
0.00181855
0.00182422
0.00182448
0.00182718
0.00182155
0.00181988
0.00182508
0.00182716
0.00183299
0.0018617
0.00191858
0.00198339
0.00193487
0.00176281
0.00146734
0.00114346
0.000946804
0.000857518
0.000882483
0.000861238
0.00102365
0.00103919
0.00183177
0.00181477
0.00182186
0.00182547
0.00182488
0.0018218
0.00182109
0.00182222
0.00182691
0.00183258
0.00185834
0.00191327
0.0019834
0.00194969
0.00179978
0.00152497
0.00121894
0.000968275
0.000877013
0.000905005
0.000857162
0.00102933
0.00115557
0.00182408
0.0018115
0.00182304
0.00182857
0.00182256
0.00182257
0.00182377
0.00182056
0.00182745
0.00183309
0.00185517
0.00190591
0.00198335
0.0019643
0.00183676
0.00158364
0.00129501
0.00102839
0.000888747
0.000928099
0.000889238
0.00104012
0.00130117
0.00181979
0.00179875
0.00181777
0.00183107
0.0018206
0.0018226
0.00182414
0.0018188
0.00182846
0.00183215
0.00185087
0.00189792
0.00197901
0.00197878
0.00187183
0.00165144
0.00138107
0.00108407
0.000961575
0.000970419
0.000924792
0.00107963
0.00130897
0.00182171
0.00180011
0.00181474
0.00182997
0.00181703
0.00182018
0.00182651
0.00181748
0.00182823
0.00182953
0.00184628
0.00188955
0.00197304
0.0019891
0.00190332
0.00172342
0.00147237
0.00115709
0.00106566
0.00104691
0.000969539
0.00116448
0.0013676
0.00181747
0.00179312
0.00181228
0.00182462
0.00181545
0.00181526
0.00182549
0.00181703
0.00182662
0.00182875
0.00184313
0.00188087
0.0019606
0.00200018
0.00193289
0.00178553
0.00156495
0.00125568
0.00114456
0.00110158
0.00102453
0.00123352
0.00153384
0.00183233
0.0018099
0.00181188
0.00182187
0.00181562
0.00181283
0.0018212
0.00181693
0.00182442
0.00182766
0.00184014
0.00187229
0.00194621
0.00200087
0.00196067
0.00184364
0.00165803
0.00137993
0.00121774
0.00118967
0.00108021
0.00119412
0.00158117
0.00182519
0.00181621
0.00181488
0.00181936
0.00181635
0.00181187
0.00181814
0.00181713
0.00182212
0.00182591
0.00183688
0.00186381
0.00192782
0.00200278
0.00197992
0.00189285
0.00174578
0.00152161
0.00129419
0.00132058
0.00112859
0.00129723
0.00165491
0.00182222
0.00182518
0.00181548
0.00181721
0.00181638
0.00181122
0.00181569
0.00181689
0.00181973
0.0018237
0.00183333
0.00185535
0.00190595
0.00199199
0.00199938
0.00193536
0.00182386
0.0016534
0.00141697
0.00140348
0.00129312
0.00151918
0.00182614
0.00181892
0.00182717
0.00181429
0.00181565
0.00181544
0.00181047
0.00181335
0.00181585
0.00181741
0.001821
0.00182962
0.00184733
0.00188624
0.00197432
0.00200422
0.00197513
0.00189064
0.00176476
0.0015718
0.0014878
0.00147728
0.00171521
0.0020663
0.00181546
0.00182163
0.00181219
0.00181448
0.00181339
0.00180928
0.00181077
0.00181392
0.00181502
0.00181822
0.00182553
0.00183987
0.00186852
0.00194185
0.00200287
0.00199663
0.00195046
0.00186317
0.00171971
0.00161604
0.00159476
0.00175215
0.0022324
0.00181195
0.00181401
0.00180991
0.00181336
0.00181065