/*--------------------------------*- C++ -*----------------------------------*\
  =========                 |
  \\      /  F ield         | OpenFOAM: The Open Source CFD Toolbox
   \\    /   O peration     | Website:  https://openfoam.org
    \\  /    A nd           | Version:  7
     \\/     M anipulation  |
\*---------------------------------------------------------------------------*/
FoamFile
{
    version     2.0;
    format      ascii;
    class       volScalarField;
    location    "75";
    object      omega;
}
// * * * * * * * * * * * * * * * * * * * * * * * * * * * * * * * * * * * * * //

dimensions      [0 0 -1 0 0 0 0];

internalField   nonuniform List<scalar> 
12842
(
3.14555
2.84343
2.6583
2.53372
2.44175
2.37593
2.3291
2.29266
2.27049
2.25052
2.24119
2.2324
2.2332
2.24009
2.25321
2.29278
2.33776
2.42579
2.50448
2.60835
2.68936
2.8003
2.8682
3.13531
2.82456
2.62714
2.51535
2.43462
2.37321
2.3278
2.29191
2.26948
2.24973
2.24019
2.23144
2.23291
2.24031
2.25501
2.28856
2.33836
2.42027
2.51373
2.60624
2.69612
2.80068
2.86372
3.11022
2.809
2.60746
2.48292
2.40585
2.35439
2.31469
2.28332
2.26224
2.24502
2.23574
2.22842
2.23077
2.23912
2.25622
2.28966
2.34218
2.42148
2.52542
2.61042
2.71149
2.81257
2.87637
3.08908
2.77076
2.58641
2.47029
2.39461
2.3458
2.30825
2.27914
2.25883
2.24292
2.23393
2.2271
2.22989
2.23892
2.25859
2.29322
2.34845
2.42776
2.54038
2.62397
2.73281
2.81872
2.88649
3.06255
2.74166
2.5534
2.43967
2.36875
2.32592
2.29291
2.2688
2.25054
2.23765
2.22969
2.22452
2.22811
2.24011
2.2616
2.29895
2.35917
2.43923
2.55354
2.63568
2.75432
2.83205
2.92011
3.0382
2.70937
2.53235
2.42475
2.35677
2.31707
2.2861
2.26418
2.24691
2.23519
2.22782
2.22345
2.22758
2.23994
2.26301
2.30313
2.3668
2.45118
2.57456
2.65796
2.77899
2.84408
2.92685
3.00963
2.67725
2.50225
2.40068
2.33719
2.30094
2.27296
2.25471
2.23946
2.23002
2.22389
2.22153
2.22648
2.23979
2.26535
2.30876
2.37907
2.46333
2.58714
2.67291
2.80213
2.88415
2.96117
2.9883
2.65333
2.4816
2.3829
2.32345
2.29132
2.26619
2.25069
2.23649
2.22787
2.22208
2.22051
2.22594
2.23981
2.26712
2.31331
2.38612
2.47754
2.61146
2.69932
2.82026
2.90181
2.9922
2.95674
2.62484
2.46119
2.36838
2.31181
2.28142
2.25754
2.24352
2.23118
2.22415
2.21891
2.21884
2.22516
2.23984
2.26827
2.3159
2.39268
2.48286
2.61783
2.7116
2.84169
2.93176
3.00755
2.93629
2.60014
2.43898
2.35084
2.29913
2.2725
2.25174
2.24038
2.22908
2.22281
2.2176
2.21805
2.2241
2.24234
2.27068
2.31831
2.39603
2.49322
2.6353
2.72972
2.85173
2.96337
3.04349
2.89952
2.57481
2.42455
2.34004
2.29038
2.26541
2.24528
2.23506
2.22533
2.22021
2.2154
2.2166
2.22456
2.24328
2.27215
2.32269
2.40501
2.50028
2.644
2.74623
2.87243
2.98111
3.06484
2.87946
2.55095
2.40353
2.32495
2.27904
2.25684
2.23981
2.23175
2.22289
2.21895
2.21438
2.21586
2.22462
2.24277
2.27413
2.32588
2.40977
2.51602
2.66423
2.77133
2.90566
3.03034
3.10838
2.8444
2.52979
2.39277
2.31568
2.2716
2.25058
2.23418
2.22732
2.21985
2.21657
2.21259
2.21458
2.22467
2.24284
2.27581
2.3316
2.42234
2.52685
2.68305
2.78937
2.93525
3.05555
3.1653
2.8237
2.50801
2.37467
2.30357
2.2626
2.24308
2.22908
2.22372
2.21701
2.21503
2.21171
2.21391
2.22485
2.24357
2.27795
2.33553
2.42923
2.54494
2.70262
2.8286
2.98087
3.11517
3.20649
2.79356
2.49021
2.36611
2.29547
2.25626
2.2373
2.22449
2.22011
2.21464
2.21285
2.21017
2.21277
2.22482
2.24432
2.28086
2.34332
2.4442
2.56478
2.73494
2.85133
3.03345
3.17147
3.31317
2.77242
2.47139
2.35096
2.28563
2.24934
2.23087
2.2199
2.21625
2.21162
2.21113
2.20919
2.21205
2.22517
2.24577
2.28412
2.35056
2.45684
2.58118
2.75849
2.90792
3.089
3.22534
3.36904
2.74755
2.45648
2.34366
2.27854
2.24371
2.22567
2.2163
2.21327
2.20971
2.20915
2.20769
2.21097
2.22506
2.24701
2.28961
2.35964
2.4709
2.61459
2.79887
2.93769
3.16164
3.32265
3.50674
2.72776
2.44064
2.33067
2.27045
2.23801
2.22001
2.21248
2.20934
2.20683
2.20734
2.20641
2.21017
2.22581
2.24909
2.29396
2.37077
2.49241
2.6329
2.83755
3.01418
3.23864
3.39241
3.59778
2.70646
2.42836
2.32412
2.26404
2.23279
2.21544
2.20944
2.20668
2.20501
2.20529
2.20492
2.20924
2.22623
2.25113
2.30348
2.37927
2.50563
2.67619
2.88082
3.05391
3.31441
3.51679
3.76167
2.69007
2.41523
2.31274
2.25727
2.22743
2.21057
2.20616
2.20302
2.20245
2.20344
2.20358
2.20843
2.22621
2.25421
2.30839
2.39421
2.53614
2.70037
2.93529
3.14972
3.43598
3.62549
3.90189
2.67196
2.4052
2.30671
2.2515
2.22287
2.20646
2.20346
2.20037
2.20056
2.20124
2.20214
2.2079
2.22869
2.25675
2.32811
2.4024
2.55184
2.75188
2.98464
3.20213
3.50845
3.77654
4.11231
2.66054
2.3942
2.29674
2.24536
2.21724
2.20243
2.20014
2.19731
2.19825
2.19936
2.20092
2.20699
2.22932
2.26006
2.33554
2.42001
2.58848
2.78516
3.05229
3.32295
3.68663
3.95559
4.31704
2.64491
2.38585
2.29093
2.2402
2.21352
2.19864
2.19759
2.19445
2.19634
2.19723
2.19961
2.20696
2.22918
2.2627
2.33936
2.42816
2.60501
2.83609
3.11447
3.39202
3.78507
4.14931
4.60398
2.63808
2.37792
2.2845
2.23587
2.20913
2.19626
2.19495
2.19262
2.19476
2.19558
2.19852
2.20631
2.23219
2.26674
2.35894
2.44427
2.64393
2.89391
3.21201
3.56186
4.02473
4.43027
4.91207
2.62822
2.37369
2.28023
2.23313
2.20731
2.19477
2.19345
2.19123
2.19381
2.19433
2.19754
2.20626
2.23037
2.26932
2.34739
2.45314
2.66511
2.94196
3.29853
3.67287
4.19782
4.71601
5.30413
2.62333
2.36826
2.27659
2.23046
2.20514
2.19374
2.1919
2.19038
2.19296
2.19314
2.19654
2.2061
2.23259
2.27249
2.35772
2.47246
2.71076
3.04126
3.45455
3.91001
4.49542
5.06999
5.69546
2.61425
2.36379
2.27195
2.22765
2.2037
2.19246
2.19062
2.1892
2.19196
2.19211
2.19538
2.20601
2.23093
2.27562
2.35182
2.4867
2.74049
3.10275
3.5663
4.07343
4.76022
5.46699
6.18743
2.6094
2.35936
2.26865
2.22532
2.20218
2.19172
2.18953
2.18848
2.19108
2.19076
2.19409
2.20594
2.23102
2.27955
2.35393
2.51855
2.80621
3.24617
3.78579
4.37782
5.12431
5.86863
6.59804
2.60127
2.35476
2.2639
2.22215
2.20096
2.19066
2.1881
2.18682
2.1897
2.18938
2.19291
2.20585
2.23093
2.28097
2.37266
2.54911
2.85868
3.32238
3.91629
4.57478
5.40151
6.24649
7.03818
2.59626
2.35133
2.26079
2.22024
2.19976
2.19005
2.18706
2.18572
2.18824
2.18774
2.19187
2.2053
2.23245
2.28691
2.38971
2.59864
2.95505
3.49009
4.14089
4.86947
5.74558
6.6098
7.41074
2.58932
2.3468
2.25632
2.21687
2.19856
2.18905
2.18476
2.18347
2.18631
2.18618
2.19119
2.20561
2.23475
2.30337
2.44173
2.67459
3.03918
3.57688
4.26874
5.05257
5.99625
6.9388
7.75875
2.58404
2.34428
2.25363
2.2149
2.19723
2.18811
2.18331
2.18136
2.18455
2.18452
2.19115
2.20733
2.24833
2.33756
2.48025
2.7301
3.14449
3.75815
4.48345
5.32434
6.29301
7.22475
8.07733
2.57813
2.33997
2.24969
2.21167
2.1951
2.18698
2.18012
2.17912
2.1825
2.18396
2.1925
2.21608
2.26585
2.37522
2.5549
2.84131
3.26134
3.84853
4.60003
5.48098
6.50577
7.50696
8.33767
2.57275
2.33802
2.24757
2.20921
2.19289
2.18475
2.17797
2.17716
2.18083
2.18444
2.20073
2.23622
2.30784
2.43746
2.62242
2.90782
3.36289
4.02879
4.80243
5.72218
6.7486
7.70869
8.57343
2.56757
2.33409
2.24431
2.20561
2.18967
2.18288
2.17562
2.17492
2.18046
2.18808
2.21562
2.26474
2.34553
2.49047
2.70054
3.02654
3.49072
4.11669
4.9053
5.85055
6.91986
7.9307
8.77238
2.5621
2.33229
2.24273
2.20284
2.18648
2.1807
2.17355
2.17439
2.18192
2.20024
2.24176
2.30642
2.40922
2.57323
2.79404
3.11474
3.60165
4.28755
5.09383
6.0645
7.10972
8.09352
8.92201
2.55757
2.32857
2.23993
2.19783
2.18269
2.17857
2.17172
2.1752
2.18853
2.21912
2.27299
2.35226
2.46272
2.63495
2.86666
3.2145
3.70513
4.37086
5.1862
6.17523
7.27019
8.23233
8.99663
2.55179
2.32676
2.23854
2.19472
2.17952
2.17582
2.17249
2.1816
2.20346
2.24791
2.31608
2.41209
2.54108
2.72925
2.97651
3.32899
3.84104
4.53254
5.36834
6.37802
7.40193
8.32175
9.05575
2.54797
2.32294
2.23575
2.18916
2.17569
2.17504
2.17701
2.19542
2.22657
2.28288
2.36194
2.46999
2.60305
2.79233
3.04053
3.40157
3.91273
4.61367
5.47126
6.4883
7.55836
8.40648
9.17681
2.54185
2.32087
2.23415
2.18592
2.17433
2.17573
2.18919
2.2179
2.25821
2.32697
2.41826
2.54109
2.6878
2.89019
3.15493
3.53029
4.0586
4.77655
5.6448
6.71539
7.67924
8.57775
9.48191
2.53852
2.31651
2.23059
2.1813
2.17229
2.18096
2.20921
2.24833
2.29716
2.37545
2.47479
2.60491
2.75134
2.95029
3.21373
3.59316
4.13185
4.8676
5.82278
6.86611
7.88147
8.9724
10.2923
2.53231
2.31346
2.22849
2.17957
2.17403
2.19366
2.23735
2.2868
2.34355
2.43098
2.53886
2.67955
2.83516
3.04456
3.32289
3.71678
4.28152
5.05251
5.96057
7.21912
8.31572
10.2556
15.031
2.52861
2.30829
2.22358
2.1764
2.18038
2.21427
2.27295
2.33141
2.39455
2.48838
2.60069
2.74321
2.89475
3.09937
3.37826
3.78039
4.36264
5.17343
6.33259
7.57084
9.49307
15.9022
30.1665
2.52271
2.30312
2.22167
2.17622
2.19462
2.24255
2.31508
2.3822
2.45091
2.55008
2.66672
2.81521
2.97324
3.18742
3.48506
3.91761
4.55191
5.44433
6.62275
8.83383
14.2048
31.3302
52.7097
2.51762
2.29783
2.21797
2.1769
2.21595
2.2784
2.3623
2.4359
2.50854
2.61085
2.72822
2.87358
3.02504
3.23498
3.53756
3.98799
4.66202
5.6443
7.50143
11.1502
24.4615
50.781
79.9565
2.51163
2.29255
2.21815
2.18476
2.24481
2.31963
2.41329
2.4926
2.56906
2.6731
2.79121
2.93895
3.09644
3.31696
3.64279
4.14554
4.93969
6.21459
8.66068
16.9686
38.5444
75.9546
107.55
2.50558
2.28796
2.21709
2.19802
2.27948
2.36667
2.46619
2.54931
2.62763
2.73178
2.84775
2.98907
3.13889
3.35916
3.69683
4.23712
5.11707
6.69345
11.2048
24.3647
56.9819
101.993
128.994
2.49832
2.2831
2.22386
2.21944
2.31994
2.41532
2.51972
2.60526
2.68618
2.78943
2.90386
3.04539
3.20329
3.43705
3.81343
4.45293
5.58684
8.03035
14.8411
35.8249
77.099
126.232
145.49
2.49062
2.27941
2.23278
2.24577
2.36423
2.46871
2.57382
2.66076
2.74252
2.84344
2.95402
3.08791
3.2379
3.47741
3.87826
4.58559
5.91771
9.12413
19.4632
47.6878
100.036
140.588
153.981
2.4839
2.27919
2.25272
2.28077
2.41486
2.52347
2.62856
2.71506
2.79832
2.89642
3.00396
3.13588
3.29561
3.55005
4.00787
4.86998
6.66625
11.4934
26.0912
62.018
120.527
148.751
157.1
2.47604
2.28138
2.27596
2.32023
2.46612
2.5787
2.68023
2.76573
2.84948
2.94343
3.04648
3.17161
3.32647
3.58898
4.08334
5.04803
7.15099
12.8864
30.624
75.1621
133.993
154.915
161.707
2.47161
2.28896
2.30779
2.36507
2.51901
2.63191
2.72874
2.81138
2.896
2.98585
3.08561
3.20802
3.372
3.65746
4.22603
5.38338
7.99069
15.2526
37.1218
87.0106
143.197
159.263
163.829
2.46819
2.30455
2.34169
2.41168
2.57018
2.68265
2.77324
2.85328
2.9385
3.02271
3.11865
3.23637
3.4004
3.69877
4.3155
5.59346
8.4893
16.4583
40.3776
97.3389
150.34
163.706
167.85
2.46637
2.32765
2.38141
2.4619
2.62125
2.7313
2.8148
2.89178
2.97637
3.05531
3.14825
3.26399
3.4367
3.76626
4.4716
5.95048
9.19578
18.3105
45.6422
105.476
153.911
165.844
171.197
2.46662
2.3579
2.42289
2.51204
2.66958
2.77632
2.85253
2.92731
3.0101
3.08319
3.17318
3.28647
3.46421
3.81698
4.58857
6.18689
9.58537
19.4716
49.4288
113.378
161.339
171.157
174.886
2.47057
2.39511
2.46849
2.56447
2.71735
2.81953
2.88833
2.96045
3.03953
3.10803
3.19521
3.30802
3.49607
3.88643
4.74932
6.48189
10.1969
21.5833
56.603
121.218
163.528
175.953
179.16
2.4825
2.43639
2.51338
2.61281
2.75865
2.8559
2.91819
2.98747
3.06235
3.12729
3.21208
3.32455
3.52023
3.93845
4.86292
6.67623
10.5805
23.7823
61.5205
120.873
165.616
175.439
179.201
2.49948
2.47828
2.55737
2.65884
2.79705
2.88907
2.94583
3.01144
3.08196
3.14459
3.22676
3.33965
3.54401
3.99271
4.96939
6.85158
11.4306
26.6186
67.2473
120.982
164.695
175.372
179.631
2.521
2.52295
2.602
2.70351
2.83211
2.91909
2.97097
3.03264
3.09865
3.15972
3.23992
3.35367
3.56738
4.04742
5.0995
7.15631
12.5318
30.6996
71.7555
121.259
165.663
175.727
180.149
2.54608
2.56722
2.64563
2.74566
2.86496
2.94611
2.99424
3.05099
3.11312
3.17355
3.25143
3.36679
3.59066
4.10678
5.22255
7.53279
14.2734
34.9712
76.3475
121.603
163.933
175.63
181.535
2.57327
2.61175
2.68832
2.78552
2.89395
2.97008
3.01505
3.0671
3.12525
3.18552
3.26195
3.3789
3.61385
4.16718
5.4051
8.10733
16.2303
39.77
79.7503
121.493
163.818
176.318
180.97
2.60261
2.65389
2.72888
2.8218
2.9208
2.99086
3.0338
3.08078
3.13599
3.19655
3.27115
3.39042
3.63682
4.23476
5.58423
8.79863
18.6657
43.8807
81.8017
121.552
164.383
174.576
181.733
2.632
2.69405
2.767
2.8551
2.94409
3.00924
3.05043
3.09294
3.14494
3.20615
3.27983
3.40106
3.65998
4.30148
5.8276
9.71946
21.293
48.0673
83.1739
121.583
161.419
174.363
179.926
2.66209
2.73094
2.80254
2.88459
2.96523
3.02463
3.06492
3.10333
3.1531
3.21477
3.28739
3.41112
3.68221
4.37666
6.08342
10.7157
24.1044
49.8568
83.9756
122.404
156.12
174.664
179.741
2.69148
2.76424
2.83447
2.91082
2.98375
3.03852
3.07783
3.11274
3.15997
3.22261
3.29458
3.42058
3.70479
4.44698
6.39366
11.9121
26.5392
50.6577
84.7739
121.115
149.443
171.308
180.065
2.71959
2.79461
2.86393
2.93372
2.99997
3.04993
3.08887
3.12085
3.16637
3.2293
3.30105
3.4294
3.72555
4.52721
6.72081
13.155
28.5603
52.0163
84.0943
118.702
142.429
165.12
176.442
2.74732
2.82067
2.88916
2.95348
3.01463
3.0605
3.09871
3.12856
3.17197
3.23558
3.30681
3.43763
3.74655
4.60369
7.09626
14.2852
29.8997
51.9817
84.3888
115.835
135.782
157.258
169.149
2.7718
2.845
2.91235
2.97072
3.02699
3.06934
3.10747
3.13494
3.17717
3.24097
3.31246
3.44547
3.76551
4.68576
7.48302
15.3912
30.7196
52.2002
84.6448
112.932
129.662
148.978
160.174
2.79626
2.86519
2.93143
2.98533
3.0385
3.0775
3.11486
3.14157
3.18196
3.24605
3.31717
3.4525
3.78382
4.77076
7.82409
16.0407
30.9984
53.2456
83.6655
109.99
124.227
140.418
150.158
2.81662
2.88499
2.9491
2.99818
3.04838
3.08488
3.12232
3.14665
3.18637
3.25019
3.32233
3.45937
3.80103
4.84741
8.15936
16.4257
31.1286
53.0268
83.6142
106.761
119.007
132.078
140.021
2.83703
2.90172
2.96336
3.00939
3.05735
3.09129
3.12793
3.15229
3.19041
3.25506
3.32671
3.46632
3.8153
4.92677
8.3523
16.4706
31.2913
53.5247
83.954
103.052
114.068
123.454
129.363
2.85351
2.91839
2.97709
3.01926
3.06631
3.09788
3.13452
3.15677
3.19431
3.25792
3.33176
3.47243
3.82934
4.97529
8.46168
16.5459
31.2158
53.0162
82.8569
98.5308
108.562
114.931
119.06
2.87047
2.93413
2.98817
3.02862
3.07343
3.10361
3.13929
3.16123
3.19771
3.26089
3.33257
3.4792
3.83751
5.00075
8.52226
16.6315
31.3316
53.027
79.9381
93.0629
102.785
106.064
108.383
2.88423
2.94873
2.99961
3.03745
3.08249
3.10943
3.1449
3.16581
3.20089
3.26121
3.33317
3.48501
3.84095
5.02316
8.53133
16.8144
31.4185
53.2472
75.64
86.7449
96.1784
97.3537
98.294
2.89871
2.96458
3.00939
3.04596
3.08914
3.11583
3.14999
3.16947
3.20444
3.26185
3.33345
3.48903
3.84246
5.02365
8.54265
16.8225
31.0349
52.4157
70.3441
79.6262
88.7565
88.5643
88.6492
2.91208
2.97865
3.01947
3.055
3.09779
3.12118
3.15448
3.17391
3.20656
3.26375
3.33363
3.49218
3.84431
5.03663
8.55282
16.6862
29.9622
50.1615
64.4255
72.1137
80.1371
79.8552
79.9855
2.92416
2.99353
3.02972
3.06419
3.10565
3.12814
3.16018
3.17792
3.2102
3.26316
3.33371
3.49205
3.84378
5.03279
8.56985
16.2169
28.3778
46.9721
58.1251
64.3167
71.0623
71.1971
72.3497
2.93836
3.00814
3.03853
3.0725
3.11262
3.13407
3.1644
3.18122
3.21277
3.26447
3.334
3.49229
3.84531
5.03507
8.49486
15.5187
26.5055
43.2418
51.7746
56.7034
62.1238
62.8882
65.8006
2.94963
3.0212
3.0492
3.08327
3.12173
3.14104
3.1695
3.18686
3.21448
3.26348
3.33532
3.49389
3.84386
5.0225
8.30967
14.6628
24.4418
39.226
45.6211
49.4775
53.9775
55.4668
60.1654
2.96282
3.03613
3.05821
3.09232
3.12831
3.14832
3.17528
3.19016
3.21923
3.26353
3.33451
3.49304
3.84315
4.98327
8.05045
13.7273
22.3998
35.2479
39.9361
42.981
46.7892
49.0558
55.3484
2.98
3.0497
3.06766
3.10282
3.1379
3.15765
3.18024
3.19715
3.22119
3.2634
3.33516
3.4936
3.83684
4.92098
7.73975
12.7606
20.4406
31.4212
34.9471
37.4503
40.8626
43.7962
51.2521
2.99364
3.06689
3.08104
3.11783
3.14821
3.16733
3.18989
3.20406
3.22223
3.26395
3.33386
3.4922
3.82558
4.84469
7.40381
11.808
18.7015
27.9864
30.6959
32.8539
36.1519
39.8615
47.9248
3.01457
3.0817
3.09228
3.12776
3.15591
3.17679
3.19149
3.20491
3.22446
3.26373
3.33374
3.49191
3.81027
4.75644
7.05895
10.9131
17.2094
24.9527
27.2717
29.3473
32.6558
36.9428
45.3106
3.02777
3.09183
3.10553
3.14016
3.16335
3.18025
3.19336
3.20606
3.2255
3.2633
3.33406
3.49213
3.79179
4.6638
6.72061
10.0981
15.9927
22.4714
24.5705
26.6075
29.9815
34.7051
43.2512
3.03482
3.0929
3.11073
3.14592
3.16365
3.18182
3.19661
3.20733
3.2269
3.263
3.33247
3.48952
3.77106
4.56991
6.40088
9.40221
15.0519
20.438
22.5276
24.6888
28.2112
33.3171
41.6657
3.04022
3.09514
3.11283
3.15002
3.16459
3.18433
3.19719
3.21132
3.22558
3.26406
3.33365
3.48606
3.7493
4.47864
6.10703
8.81772
14.3453
18.9231
21.0418
23.2675
26.8813
32.2798
40.3138
3.04369
3.09795
3.11697
3.15159
3.16598
3.18339
3.1977
3.21096
3.22559
3.26232
3.33218
3.48085
3.7272
4.39247
5.84719
8.35473
13.822
17.7534
19.9519
22.2963
26.0061
31.6729
39.1179
3.04731
3.10259
3.12182
3.15075
3.1662
3.18334
3.19867
3.21393
3.22753
3.26207
3.33206
3.47618
3.70633
4.31436
5.62751
8.00103
13.4622
16.954
19.2311
21.6461
25.3663
31.1021
38.0961
3.04386
3.10403
3.11981
3.1518
3.16642
3.1846
3.19866
3.21207
3.22571
3.26301
3.33295
3.47034
3.68642
4.24516
5.44543
7.73713
13.178
16.3638
18.7143
21.1206
24.8003
30.586
37.0604
3.04605
3.10596
3.12215
3.15148
3.16928
3.18464
3.20105
3.21198
3.2255
3.26284
3.33253
3.4659
3.66955
4.18692
5.30794
7.55099
13.0123
15.9504
18.3518
20.7494
24.5184
30.3082
36.3911
3.04782
3.10172
3.11849
3.15227
3.16653
3.18665
3.20043
3.2131
3.22552
3.26197
3.33103
3.46043
3.65368
4.13813
5.19606
7.40918
12.8671
15.6928
18.0422
20.5131
24.06
29.8689
36.0083
3.04267
3.10192
3.11953
3.14882
3.16687
3.18383
3.20308
3.21421
3.22538
3.26095
3.32874
3.45695
3.64194
4.10125
5.12319
7.31988
12.7431
15.4402
17.8739
20.3174
23.9559
29.5752
35.7245
3.0434
3.10399
3.11928
3.14847
3.17031
3.18409
3.20052
3.21137
3.22552
3.25966
3.32577
3.45205
3.63059
4.07139
5.06475
7.2398
12.6203
15.3209
17.7395
20.1875
23.6491
29.1608
35.1412
3.04586
3.10305
3.11847
3.1479
3.16703
3.18579
3.20002
3.21105
3.22473
3.25806
3.32511
3.44966
3.62294
4.05101
5.0286
7.20237
12.5678
15.1639
17.6409
19.9976
23.829
28.899
34.7351
3.04733
3.10407
3.11825
3.14789
3.17078
3.18234
3.19978
3.21162
3.22478
3.25918
3.32359
3.44503
3.6165
4.03885
5.00148
7.13864
12.4268
15.1096
17.536
19.7762
23.8975
29.0054
33.7336
3.04076
3.0991
3.11874
3.14945
3.16791
3.18235
3.20064
3.20817
3.22398
3.26032
3.32479
3.44562
3.61662
4.04391
5.02172
7.21054
12.5427
15.2138
17.6372
19.9982
24.2779
29.421
33.3583
3.04078
3.09867
3.11773
3.14431
3.16985
3.1837
3.19638
3.20738
3.22297
3.25898
3.32172
3.43716
3.60317
4.00444
4.92449
6.97562
12.1159
14.9559
17.4456
19.8072
23.6396
28.9919
32.1931
3.04388
3.09673
3.11708
3.14283
3.16806
3.1812
3.19502
3.20888
3.22348
3.25734
3.3183
3.42844
3.59006
3.96767
4.8328
6.75467
11.6717
14.7511
17.1552
19.5007
23.2646
28.3777
31.1744
3.04469
3.09496
3.1134
3.14237
3.1678
3.18004
3.19179
3.20782
3.22183
3.25375
3.31299
3.4185
3.57577
3.93028
4.73918
6.53109
11.2122
14.4865
16.7326
19.0469
22.6216
27.4211
30.0314
3.04101
3.0959
3.11088
3.13405
3.16506
3.17704
3.18947
3.20419
3.21518
3.24873
3.30715
3.4081
3.56051
3.89216
4.64309
6.3017
10.6897
14.2498
16.2499
18.4702
22.4563
26.2531
28.6967
3.03594
3.09224
3.10313
3.13212
3.16065
3.1696
3.1858
3.19746
3.21223
3.24257
3.29929
3.3961
3.54304
3.85133
4.54189
6.06179
10.0799
13.9677
16.1627
17.7979
21.8176
24.9105
27.1628
3.02517
3.0869
3.10314
3.13549
3.15513
3.16542
3.18316
3.18732
3.20317
3.23737
3.29092
3.38309
3.524
3.80843
4.43614
5.80955
9.41084
13.3421
16.1259
17.6277
21.1892
23.5254
25.4697
3.00883
3.07886
3.09618
3.13154
3.14971
3.15655
3.18416
3.18394
3.204
3.23101
3.28094
3.36795
3.50176
3.76171
4.32483
5.54544
8.67378
12.6263
15.646
17.6688
20.4207
22.2773
23.8832
3.00349
3.07315
3.08894
3.12237
3.14309
3.1564
3.18024
3.18534
3.20249
3.22319
3.26961
3.35188
3.47804
3.71333
4.2116
5.27964
7.87199
12.0871
15.0157
17.2798
19.5825
21.0894
22.4017
3.00489
3.06481
3.07923
3.11133
3.13628
3.14765
3.16841
3.17999
3.19407
3.21272
3.2558
3.33279
3.45068
3.66178
4.09685
5.01735
7.14333
11.2818
14.2606
16.6081
18.7983
20.1307
21.1418
2.99726
3.05071
3.06734
3.09641
3.12822
3.13523
3.15263
3.17153
3.1828
3.19919
3.24052
3.31315
3.42193
3.60998
3.98549
4.76691
6.49331
10.2543
13.3331
15.765
17.9315
19.2551
20.1432
2.97024
3.0388
3.05861
3.07911
3.1163
3.12054
3.13747
3.15919
3.16701
3.18305
3.2228
3.28986
3.38887
3.5552
3.87588
4.52889
5.91516
9.12427
12.2178
14.7285
17.0001
18.3681
19.1646
2.95175
3.0222
3.04396
3.06636
3.10282
3.10668
3.11831
3.14483
3.15218
3.16888
3.20585
3.26594
3.35494
3.5011
3.77242
4.30961
5.40845
7.99334
10.9472
13.4991
15.9157
17.3854
18.1962
2.92881
3.0026
3.02399
3.05563
3.08395
3.09495
3.1012
3.12649
3.13538
3.15231
3.18502
3.23734
3.31618
3.44339
3.67066
4.10543
4.96356
6.94767
9.59112
12.1024
14.5887
16.2638
17.1575
2.90532
2.97676
3.00403
3.03859
3.06329
3.08
3.08881
3.10797
3.11894
3.13554
3.16401
3.20884
3.27752
3.38717
3.57585
3.92252
4.58095
6.01824
8.2634
10.5367
13.0837
14.9266
15.9934
2.89576
2.94744
2.97999
3.0147
3.03667
3.05754
3.06803
3.08308
3.0962
3.11194
3.13645
3.17445
3.23321
3.32608
3.4807
3.75318
4.24917
5.2355
7.07527
8.93309
11.4131
13.4499
14.7282
2.87216
2.90757
2.95549
2.98831
3.00926
3.03284
3.04446
3.05734
3.07211
3.08703
3.10833
3.14058
3.19014
3.26796
3.39332
3.60465
3.97326
4.64826
6.00784
7.48804
9.63792
11.8705
13.3294
2.83907
2.86896
2.92367
2.95322
2.97476
2.99941
3.0119
3.0237
3.03882
3.05298
3.07119
3.09843
3.13986
3.20304
3.30312
3.46611
3.73663
4.20172
5.10443
6.28437
7.95294
10.1734
11.919
2.80375
2.83933
2.89005
2.91647
2.94001
2.96459
2.97822
2.98978
3.00474
3.01804
3.03443
3.05724
3.09185
3.14372
3.22132
3.3442
3.54664
3.86421
4.45362
5.29892
6.51722
8.49754
10.4691
2.75931
2.80219
2.84552
2.86976
2.8955
2.91887
2.93353
2.94508
2.95888
2.97141
2.98529
3.00491
3.03291
3.07474
3.13523
3.22489
3.3696
3.60539
3.98677
4.54623
5.38301
6.85942
9.02096
2.71445
2.76347
2.79959
2.82328
2.85107
2.87296
2.88868
2.90076
2.91367
2.9252
2.93827
2.95458
2.97808
3.01134
3.05901
3.12521
3.22539
3.39302
3.66182
4.02661
4.58225
5.55268
7.50541
2.65857
2.71035
2.74029
2.76433
2.79295
2.81287
2.82895
2.84131
2.85298
2.86337
2.87433
2.88882
2.90754
2.93335
2.96929
3.01933
3.08747
3.19783
3.40278
3.6467
4.00396
4.63179
5.86244
2.60399
2.657
2.68244
2.70759
2.73629
2.75474
2.771
2.78406
2.79522
2.80496
2.81528
2.82712
2.8437
2.86483
2.89119
2.9289
2.97751
3.04995
3.1829
3.39105
3.62028
4.01388
4.78901
2.53494
2.58609
2.60808
2.63363
2.66084
2.67746
2.6929
2.70584
2.71616
2.72466
2.73354
2.74371
2.75554
2.77327
2.79288
2.82013
2.85368
2.90124
2.98314
3.15362
3.32948
3.57164
4.03758
2.47005
2.51953
2.5396
2.56537
2.59085
2.60637
2.6212
2.63438
2.64479
2.65299
2.66124
2.67056
2.68072
2.69453
2.71012
2.73112
2.7553
2.78691
2.83951
2.93818
3.13734
3.29002
3.56008
2.38543
2.43048
2.4486
2.47279
2.49507
2.5086
2.52168
2.53374
2.5433
2.55045
2.55671
2.56428
2.57145
2.5826
2.59401
2.60847
2.62565
2.6463
2.67926
2.73813
2.8686
3.05703
3.22323
2.31093
2.35343
2.37072
2.39353
2.4134
2.42578
2.43787
2.44948
2.45909
2.46691
2.47286
2.4797
2.48556
2.49371
2.50452
2.51603
2.52873
2.54315
2.56385
2.5996
2.66876
2.83663
2.98294
2.20854
2.24492
2.25975
2.27878
2.29457
2.30417
2.3136
2.32296
2.33044
2.33675
2.34135
2.34646
2.35056
2.35479
2.36154
2.37014
2.38002
2.38971
2.40175
2.42194
2.45899
2.53898
2.71839
2.12838
2.16257
2.17619
2.19304
2.20684
2.21518
2.22326
2.2321
2.2395
2.24578
2.25031
2.25519
2.25972
2.26336
2.26808
2.2739
2.28207
2.29086
2.29985
2.31168
2.33209
2.37207
2.46595
2.00473
2.03034
2.0397
2.0509
2.06
2.06492
2.06906
2.07411
2.07872
2.08276
2.08537
2.08785
2.09057
2.09269
2.09535
2.0982
2.10245
2.10821
2.11452
2.12124
2.13109
2.14899
2.18762
1.9334
1.95794
1.96307
1.97139
1.97882
1.983
1.98631
1.99042
1.99446
1.99821
2.00074
2.00292
2.00534
2.00734
2.00968
2.01203
2.01521
2.01981
2.02524
2.03093
2.0383
2.0507
2.07588
1.7586
1.76818
1.77064
1.77201
1.77351
1.77332
1.77203
1.77137
1.77085
1.77114
1.77163
1.77129
1.77142
1.77165
1.77208
1.77278
1.77354
1.77495
1.77734
1.78042
1.78321
1.7865
1.79087
3.07775
2.75662
2.56851
2.45153
2.37797
2.33078
2.29301
2.26711
2.24624
2.23378
2.22826
2.22389
2.22608
2.23347
2.24957
2.27888
2.32956
2.41843
2.49441
2.61271
2.70247
2.77816
2.87162
3.0887
2.76642
2.57669
2.46548
2.38698
2.3373
2.30097
2.27159
2.25151
2.23746
2.23225
2.22656
2.22853
2.23535
2.25186
2.28075
2.33363
2.41289
2.49654
2.60901
2.69359
2.78242
2.86851
3.1041
2.79061
2.60131
2.48148
2.40152
2.35008
2.30789
2.27667
2.25499
2.2411
2.23616
2.22839
2.22981
2.23631
2.25049
2.28126
2.32784
2.41715
2.49132
2.61201
2.68881
2.7822
2.86555
3.11851
2.80248
2.61106
2.49559
2.41323
2.35622
2.31344
2.27905
2.2592
2.24617
2.23951
2.23023
2.2314
2.23805
2.25115
2.28749
2.33184
2.41648
2.49688
2.60224
2.69537
2.77593
2.86607
3.12964
2.8255
2.64216
2.51623
2.42771
2.36635
2.31862
2.2847
2.26893
2.25182
2.24286
2.23219
2.23299
2.23945
2.25055
2.2922
2.33313
2.42122
2.49373
2.60274
2.70099
2.77895
2.88138
3.14179
2.84556
2.6508
2.521
2.43177
2.36864
2.32474
2.29552
2.27467
2.25423
2.2442
2.23334
2.23395
2.24051
2.25014
2.29297
2.3353
2.42119
2.49942
2.61551
2.69867
2.79507
2.88602
3.15074
2.85472
2.66318
2.53513
2.44554
2.38112
2.33557
2.29985
2.2778
2.25636
2.24675
2.23565
2.2362
2.2427
2.25347
2.29814
2.33948
2.42572
2.50739
2.62571
2.70923
2.82442
2.8975
3.15121
2.85714
2.66487
2.53449
2.44294
2.37815
2.33284
2.29783
2.27655
2.2557
2.24617
2.23556
2.23638
2.24305
2.25452
2.30328
2.34267
2.43046
2.51292
2.62595
2.70463
2.81659
2.88749
2.90116
2.5675
2.41503
2.32971
2.28515
2.25476
2.23872
2.22154
2.21495
2.20698
2.2056
2.20438
2.20948
2.22407
2.25448
2.29883
2.37669
2.49993
2.70699
2.88121
3.09822
3.32187
3.49372
2.91356
2.57458
2.42033
2.33477
2.29056
2.25772
2.24065
2.22364
2.21646
2.20813
2.20668
2.20526
2.21016
2.22468
2.25201
2.29624
2.37095
2.49017
2.68739
2.84952
3.04811
3.26142
3.41361
2.91626
2.58113
2.42746
2.33938
2.29418
2.26192
2.24431
2.22656
2.21804
2.20963
2.2075
2.20593
2.21064
2.22464
2.25021
2.29364
2.36502
2.47765
2.66034
2.81345
2.99692
3.1993
3.35165
2.92998
2.58963
2.43366
2.34558
2.29971
2.26554
2.24614
2.22857
2.21921
2.21079
2.20847
2.2069
2.21145
2.22492
2.24955
2.29174
2.36023
2.46813
2.64069
2.77841
2.95717
3.13603
3.28577
2.9339
2.59735
2.44208
2.35067
2.30336
2.26998
2.24991
2.23145
2.22074
2.21199
2.20922
2.20768
2.21203
2.22447
2.24879
2.29205
2.35491
2.45686
2.61983
2.75015
2.92379
3.07912
3.23315
2.94923
2.60782
2.44856
2.35852
2.30937
2.27388
2.25175
2.23373
2.22226
2.21349
2.21004
2.20878
2.21297
2.22499
2.24901
2.29313
2.35079
2.44622
2.59821
2.71219
2.88446
3.01519
3.17203
2.95434
2.61695
2.45918
2.36443
2.313
2.27856
2.25555
2.23647
2.22368
2.21476
2.21113
2.20987
2.21391
2.22483
2.24921
2.2922
2.34791
2.43899
2.58299
2.69204
2.85707
2.9658
3.11222
2.97146
2.63006
2.46619
2.37309
2.3197
2.28274
2.25771
2.2392
2.22561
2.2163
2.21205
2.21113
2.215
2.22557
2.24873
2.28687
2.3433
2.42954
2.56516
2.66751
2.82643
2.92652
3.06929
2.97759
2.64079
2.47839
2.38108
2.32371
2.28754
2.26181
2.24215
2.22746
2.21816
2.2135
2.21242
2.21613
2.22577
2.24842
2.28333
2.33911
2.42344
2.55173
2.64687
2.79388
2.87993
3.01053
2.99662
2.65682
2.48759
2.38926
2.33111
2.29239
2.26424
2.24501
2.22954
2.21972
2.21496
2.214
2.21755
2.22691
2.24835
2.28313
2.33548
2.42025
2.54382
2.63468
2.77467
2.86141
2.98264
3.00347
2.6692
2.50003
2.39977
2.33574
2.29721
2.26914
2.24875
2.23223
2.222
2.21673
2.21537
2.21876
2.22798
2.24817
2.28372
2.3328
2.42183
2.53404
2.61844
2.75149
2.82713
2.94164
3.0242
2.6879
2.51241
2.40765
2.34425
2.30334
2.27198
2.25151
2.23431
2.22395
2.21894
2.21719
2.22035
2.22893
2.24796
2.28345
2.33239
2.42225
2.52916
2.61204
2.73824
2.81202
2.92152
3.03142
2.70121
2.5245
2.41971
2.34958
2.30831
2.27792
2.25599
2.2379
2.2263
2.22083
2.21849
2.22143
2.22986
2.24923
2.28057
2.33076
2.42112
2.51647
2.60271
2.72908
2.80056
2.90336
3.05293
2.7224
2.53947
2.42831
2.35941
2.31578
2.28149
2.25893
2.23985
2.22861
2.22341
2.22037
2.22301
2.23079
2.24912
2.27951
2.32815
2.41755
2.50295
2.60404
2.72084
2.78811
2.88185
3.06023
2.7346
2.55105
2.44119
2.36605
2.32148
2.28823
2.26347
2.24401
2.23124
2.22566
2.22185
2.2243
2.23196
2.24966
2.27886
2.32845
2.41522
2.49669
2.60371
2.71815
2.78286
2.8777
2.80328
2.47166
2.35203
2.27757
2.25211
2.27512
2.33567
2.36024
2.42956
2.55079
2.65857
2.75785
2.85003
2.9482
3.06246
3.21586
3.39821
3.66088
3.94148
4.30058
4.70334
5.12669
5.51365
2.80775
2.47923
2.35566
2.27675
2.24217
2.25358
2.28998
2.30866
2.36911
2.48467
2.59306
2.69331
2.79036
2.88703
3.00284
3.16321
3.35386
3.6227
3.90623
4.26287
4.66514
5.08349
5.47739
2.80866
2.48517
2.35853
2.27462
2.23616
2.23504
2.25481
2.26508
2.31682
2.41836
2.52861
2.6276
2.72454
2.82702
2.94741
3.10754
3.29753
3.56858
3.85683
4.21215
4.624
5.04686
5.44016
2.81282
2.49184
2.36263
2.27806
2.23705
2.22767
2.23357
2.23586
2.27431
2.3631
2.46609
2.56297
2.65948
2.75998
2.88043
3.04438
3.23973
3.51674
3.80475
4.16078
4.57354
4.99417
5.40088
2.81433
2.49611
2.36425
2.28067
2.23872
2.2206
2.21186
2.20861
2.23661
2.30819
2.40385
2.49542
2.59181
2.6922
2.81479
2.9779
3.17289
3.45301
3.74856
4.10319
4.52343
4.94804
5.35523
2.81878
2.50052
2.36698
2.28363
2.2399
2.21925
2.205
2.19468
2.2108
2.26568
2.351
2.43349
2.52328
2.62203
2.74304
2.90651
3.1044
3.38942
3.68398
4.04111
4.46302
4.88182
5.30419
2.82086
2.50428
2.36837
2.28794
2.24327
2.2208
2.20319
2.18835
2.19254
2.23144
2.30079
2.37544
2.46209
2.55438
2.67306
2.83356
3.02984
3.31433
3.61543
3.97177
4.40003
4.82378
5.249
2.82515
2.50679
2.3692
2.29005
2.24523
2.22177
2.20218
2.18729
2.18196
2.20532
2.26198
2.32415
2.40001
2.48809
2.60272
2.75967
2.95465
3.24381
3.54497
3.9017
4.33238
4.7453
5.18531
2.82783
2.5101
2.37019
2.29391
2.24801
2.2247
2.20472
2.18925
2.18
2.19112
2.23152
2.28225
2.35101
2.42871
2.53603
2.68696
2.87876
3.1609
3.46632
3.82189
4.2572
4.67288
5.11609
2.83174
2.51242
2.37119
2.29646
2.25092
2.22607
2.20673
2.19069
2.1801
2.18285
2.20791
2.24757
2.30368
2.37439
2.47484
2.61824
2.80391
3.08698
3.39269
3.74413
4.18331
4.58644
5.04033
2.83502
2.51502
2.37207
2.29908
2.25283
2.22729
2.20894
2.19389
2.18242
2.18319
2.19603
2.22411
2.27096
2.33008
2.41938
2.55352
2.73366
3.00428
3.31244
3.66022
4.10066
4.50006
4.95446
2.83845
2.51807
2.37331
2.30179
2.2551
2.22856
2.21231
2.19687
2.18528
2.18297
2.18808