/*--------------------------------*- C++ -*----------------------------------*\
  =========                 |
  \\      /  F ield         | OpenFOAM: The Open Source CFD Toolbox
   \\    /   O peration     | Website:  https://openfoam.org
    \\  /    A nd           | Version:  7
     \\/     M anipulation  |
\*---------------------------------------------------------------------------*/
FoamFile
{
    version     2.0;
    format      ascii;
    class       volScalarField;
    location    "75";
    object      p;
}
// * * * * * * * * * * * * * * * * * * * * * * * * * * * * * * * * * * * * * //

dimensions      [0 2 -2 0 0 0 0];

internalField   nonuniform List<scalar> 
12842
(
-0.00988309
-0.017445
-0.0406074
-0.0816428
-0.137532
-0.207317
-0.291548
-0.389261
-0.495095
-0.596981
-0.675586
-0.705464
-0.657154
-0.501321
-0.214366
0.214958
0.781802
1.46413
2.22505
3.01878
3.79995
4.52803
5.17887
-0.0928024
-0.111391
-0.152478
-0.222959
-0.321622
-0.450646
-0.615867
-0.822643
-1.07134
-1.35392
-1.65285
-1.94126
-2.18443
-2.34298
-2.37833
-2.2605
-1.97445
-1.52481
-0.936934
-0.253557
0.475711
1.19669
1.87591
-0.154523
-0.186243
-0.243508
-0.340615
-0.477283
-0.658934
-0.897508
-1.20447
-1.58522
-2.03508
-2.53835
-3.06765
-3.58452
-4.04159
-4.38787
-4.57745
-4.57809
-4.37906
-3.99482
-3.46427
-2.83765
-2.18006
-1.52735
-0.200757
-0.243458
-0.315529
-0.437365
-0.607911
-0.836627
-1.14259
-1.54268
-2.04667
-2.65271
-3.34736
-4.10367
-4.88094
-5.62569
-6.27657
-6.77387
-7.07002
-7.14026
-6.98813
-6.64739
-6.16627
-5.61751
-5.03502
-0.235911
-0.285151
-0.371341
-0.51579
-0.715451
-0.985575
-1.35307
-1.83886
-2.4568
-3.20762
-4.08103
-5.05171
-6.07848
-7.10365
-8.05737
-8.86768
-9.47279
-9.8342
-9.94359
-9.82795
-9.53015
-9.12917
-8.65207
-0.262789
-0.314017
-0.414091
-0.578066
-0.801083
-1.1064
-1.5284
-2.09025
-2.81016
-3.69133
-4.72801
-5.89789
-7.16158
-8.45925
-9.71442
-10.8443
-11.7735
-12.4496
-12.8507
-12.995
-12.9172
-12.7002
-12.3616
-0.283232
-0.33304
-0.446654
-0.625983
-0.865967
-1.19994
-1.66804
-2.29392
-3.10109
-4.09495
-5.2761
-6.62687
-8.11228
-9.67269
-11.2269
-12.6827
-13.9513
-14.966
-15.6898
-16.1302
-16.3099
-16.3155
-16.1491
-0.29859
-0.344972
-0.471253
-0.661119
-0.911888
-1.268
-1.77254
-2.44874
-3.32678
-4.41393
-5.71918
-7.23089
-8.92111
-10.7324
-12.5805
-14.3651
-15.9843
-17.3575
-18.4309
-19.2007
-19.6738
-19.9406
-19.9801
-0.310744
-0.351878
-0.488653
-0.682982
-0.937905
-1.30831
-1.836
-2.54412
-3.46923
-4.61964
-6.01321
-7.64505
-9.49555
-11.5108
-13.605
-15.6717
-17.598
-19.2918
-20.6836
-21.7614
-22.5123
-23.0398
-23.2779
-0.323711
-0.357303
-0.504659
-0.700113
-0.957489
-1.33972
-1.88427
-2.61606
-3.57621
-4.77392
-6.23458
-7.95972
-9.93719
-12.1165
-14.411
-16.7098
-18.8919
-20.8572
-22.524
-23.8735
-24.8773
-25.6415
-26.0829
-0.334021
-0.360723
-0.518512
-0.713038
-0.973726
-1.36741
-1.92655
-2.68003
-3.67227
-4.91387
-6.43744
-8.25125
-10.3504
-12.6879
-15.1769
-17.7034
-20.1403
-22.3813
-24.3343
-25.9748
-27.2591
-28.2925
-28.9764
-0.341715
-0.362427
-0.529275
-0.720974
-0.985952
-1.38944
-1.96044
-2.73316
-3.75401
-5.03574
-6.61783
-8.51563
-10.7312
-13.2213
-15.8995
-18.6504
-21.3423
-23.8652
-26.1177
-28.07
-29.6627
-30.9964
-31.9549
-0.34774
-0.362927
-0.53666
-0.724445
-0.994477
-1.40525
-1.98553
-2.77504
-3.82107
-5.13928
-6.77576
-8.75327
-11.0806
-13.7189
-16.5826
-19.5567
-22.5066
-25.3201
-27.8872
-30.1727
-32.0999
-33.7614
-35.023
-0.352734
-0.362445
-0.540713
-0.724763
-1.00028
-1.41575
-2.00355
-2.80795
-3.87644
-5.2283
-6.91586
-8.96958
-11.4047
-14.1872
-17.2336
-20.4305
-23.6417
-26.7541
-29.6494
-32.2861
-34.5689
-36.5794
-38.168
-0.357078
-0.360963
-0.541771
-0.723412
-1.00424
-1.42221
-2.01664
-2.83456
-3.92351
-5.3069
-7.04283
-9.16957
-11.7086
-14.6313
-17.8572
-21.276
-24.751
-28.1688
-31.4022
-34.4028
-37.0558
-39.4292
-41.3608
-0.360982
-0.358442
-0.54056
-0.721675
-1.00688
-1.42571
-2.02638
-2.85669
-3.96442
-5.37743
-7.15899
-9.35521
-11.9937
-15.0519
-18.4533
-22.092
-25.8313
-29.5577
-33.1344
-36.5045
-39.5332
-42.2734
-44.5534
-0.364582
-0.354866
-0.53806
-0.720415
-1.00839
-1.42702
-2.03366
-2.87514
-3.99996
-5.44048
-7.26447
-9.52588
-12.2583
-15.4462
-19.0181
-22.8732
-26.8751
-30.9093
-34.828
-38.5643
-41.9632
-45.0611
-47.6812
-0.367888
-0.35029
-0.535297
-0.719971
-1.00876
-1.42664
-2.03877
-2.89002
-4.03002
-5.4955
-7.35803
-9.67937
-12.4993
-15.8099
-19.5457
-23.6118
-27.871
-32.2067
-36.4577
-40.5455
-44.2951
-47.7256
-50.6605
-0.370813
-0.344884
-0.533112
-0.720243
-1.00797
-1.42492
-2.04177
-2.9012
-4.05422
-5.54172
-7.43825
-9.81349
-12.7134
-16.1386
-20.0302
-24.2987
-28.8053
-33.4285
-37.9916
-42.4023
-46.4661
-50.186
-53.3908
-0.373246
-0.338953
-0.532068
-0.720852
-1.00602
-1.42204
-2.0426
-2.90857
-4.07228
-5.5786
-7.50418
-9.92678
-12.8985
-16.4291
-20.4662
-24.9252
-29.6631
-34.5504
-39.3925
-44.0816
-48.4066
-52.3551
-55.7704
-0.375023
-0.332955
-0.532313
-0.721351
-1.00307
-1.41819
-2.04119
-2.91205
-4.08399
-5.60578
-7.55512
-10.0181
-13.0527
-16.6781
-20.8477
-25.48
-30.4255
-35.5435
-40.62
-45.5297
-50.0501
-54.1518
-57.6993
-0.375994
-0.327284
-0.533854
-0.72126
-0.999106
-1.41324
-2.03737
-2.91162
-4.08931
-5.6231
-7.59054
-10.0864
-13.174
-16.8814
-21.1671
-25.9503
-31.072
-36.377
-41.6314
-46.6897
-51.3247
-55.4897
-59.076
-0.375876
-0.32247
-0.536031
-0.720414
-0.994573
-1.40741
-2.03122
-2.90731
-4.08828
-5.63064
-7.61043
-10.1311
-13.2605
-17.0348
-21.4158
-26.3213
-31.5793
-37.0168
-42.3802
-47.5035
-52.1616
-56.2967
-59.8282
-0.373921
-0.318988
-0.538886
-0.718292
-0.989595
-1.40161
-2.02493
-2.90272
-4.0848
-5.63195
-7.61676
-10.152
-13.3085
-17.1301
-21.5804
-26.5731
-31.9209
-37.4299
-42.8284
-47.9315
-52.5222
-56.5388
-59.9281
-0.375333
-0.318905
-0.543541
-0.717949
-0.987647
-1.39974
-2.02326
-2.90302
-4.0851
-5.63429
-7.61902
-10.161
-13.3328
-17.1838
-21.6767
-26.7165
-32.0979
-37.6028
-42.9462
-47.9307
-52.3559
-56.1693
-59.3516
-0.37529
-0.319708
-0.547953
-0.717939
-0.987699
-1.40152
-2.02742
-2.91182
-4.09635
-5.64958
-7.63476
-10.1812
-13.3608
-17.2251
-21.7318
-26.7736
-32.1264
-37.5498
-42.7529
-47.5374
-51.7274
-55.2874
-58.2289
-0.373548
-0.32096
-0.55106
-0.71748
-0.988554
-1.40501
-2.0343
-2.92422
-4.11156
-5.66837
-7.6521
-10.1984
-13.3759
-17.2351
-21.7261
-26.7266
-31.995
-37.2733
-42.2726
-46.8038
-50.7195
-54.0016
-56.6863
-0.371113
-0.322577
-0.552778
-0.716513
-0.989476
-1.40864
-2.04115
-2.93575
-4.12421
-5.68194
-7.66
-10.1995
-13.3634
-17.1987
-21.6451
-26.5643
-31.6999
-36.7823
-41.5312
-45.775
-49.3956
-52.3903
-54.8156
-0.368474
-0.324309
-0.553281
-0.715462
-0.990605
-1.41231
-2.0475
-2.94547
-4.13301
-5.68879
-7.65682
-10.1829
-13.3217
-17.1146
-21.4887
-26.2896
-31.2493
-36.0942
-40.5578
-44.4912
-47.8062
-50.5141
-52.6873
-0.365877
-0.325914
-0.552969
-0.714869
-0.99239
-1.4165
-2.05388
-2.95408
-4.1391
-5.69064
-7.645
-10.1517
-13.2543
-16.9869
-21.2623
-25.9106
-30.6566
-35.2299
-39.3835
-42.9924
-46.0001
-48.4314
-50.3668
-0.363769
-0.327346
-0.552393
-0.715165
-0.995088
-1.42139
-2.06045
-2.96184
-4.1431
-5.68858
-7.62607
-10.1077
-13.1635
-16.8185
-20.9703
-25.4354
-29.9355
-34.2106
-38.0393
-41.3194
-44.0248
-46.1945
-47.9078
-0.362679
-0.328702
-0.552059
-0.716467
-0.998558
-1.42665
-2.06673
-2.96826
-4.14462
-5.6823
-7.5998
-10.0507
-13.0491
-16.6097
-20.6147
-24.8697
-29.0984
-33.0557
-36.5524
-39.5082
-41.9217
-43.8424
-45.3478
-0.362856
-0.330009
-0.552199
-0.718549
-1.00231
-1.4316
-2.07191
-2.9725
-4.14288
-5.67106
-7.56542
-9.97975
-12.9103
-16.3608
-20.1979
-24.2196
-28.1578
-31.784
-34.9459
-37.5882
-39.7228
-41.4033
-42.7101
-0.364153
-0.331177
-0.552764
-0.720925
-1.0057
-1.4355
-2.07524
-2.97392
-4.13741
-5.65447
-7.52255
-9.8946
-12.7471
-16.0726
-19.723
-23.4917
-27.1255
-30.4134
-33.241
-35.5805
-37.4493
-38.9026
-40.0264
-0.366139
-0.332042
-0.553526
-0.723087
-1.00819
-1.43784
-2.07637
-2.97243
-4.12834
-5.63285
-7.47163
-9.79585
-12.5606
-15.7475
-19.1949
-22.6941
-26.0138
-28.9621
-31.4591
-33.5036
-35.1188
-36.3649
-37.3259
-0.368327
-0.332487
-0.554261
-0.724658
-1.0095
-1.43851
-2.07542
-2.96848
-4.11636
-5.60708
-7.41364
-9.68468
-12.3524
-15.3885
-18.6189
-21.8354
-24.8347
-27.4464
-29.6198
-31.3769
-32.7526
-33.8085
-34.6169
-0.370314
-0.332474
-0.554817
-0.725501
-1.00967
-1.43777
-2.07296
-2.96292
-4.10253
-5.57837
-7.34985
-9.56256
-12.1247
-14.999
-18.001
-20.925
-23.6002
-25.881
-27.7403
-29.222
-30.3721
-31.2461
-31.9068
-0.371865
-0.332075
-0.55517
-0.725673
-1.00897
-1.43613
-2.06973
-2.95671
-4.08791
-5.54777
-7.28132
-9.43072
-11.8792
-14.5822
-17.3466
-19.9716
-22.3214
-24.278
-25.8352
-27.0569
-27.9926
-28.6887
-29.2073
-0.37289
-0.33141
-0.555369
-0.725379
-1.00781
-1.43418
-2.06646
-2.95069
-4.07327
-5.51603
-7.20876
-9.29007
-11.6175
-14.1413
-16.6613
-18.9842
-21.0098
-22.6496
-23.9168
-24.8935
-25.6236
-26.1496
-26.5381
-0.373426
-0.330637
-0.555516
-0.724849
-1.00656
-1.43239
-2.06368
-2.94532
-4.05896
-5.48335
-7.13232
-9.14105
-11.3407
-13.679
-15.95
-17.9706
-19.6757
-21.0072
-21.9965
-22.7393
-23.2776
-23.6486
-23.9216
-0.373563
-0.329886
-0.555698
-0.724304
-1.00552
-1.4311
-2.06164
-2.94074
-4.04493
-5.44955
-7.05188
-8.9839
-11.0501
-13.1984
-15.2178
-16.9391
-18.3296
-19.3633
-20.086
-20.6026
-20.9675
-21.2026
-21.3598
-0.37343
-0.329266
-0.555987
-0.723886
-1.00486
-1.43041
-2.06035
-2.93677
-4.03079
-5.4141
-6.96702
-8.81868
-10.7467
-12.7024
-14.4695
-15.8968
-16.9811
-17.7279
-18.1973
-18.4927
-18.6887
-18.8013
-18.8513
-0.37314
-0.328834
-0.556406
-0.723677
-1.00462
-1.4303
-2.05962
-2.93304
-4.01604
-5.37649
-6.87745
-8.6457
-10.432
-12.1942
-13.7104
-14.8516
-15.6396
-16.1096
-16.3395
-16.4206
-16.4345
-16.4178
-16.3881
-0.372797
-0.328613
-0.556954
-0.723681
-1.00475
-1.43061
-2.05916
-2.92914
-4.00015
-5.33621
-6.78296
-8.46531
-10.1073
-11.6771
-12.9448
-13.81
-14.3133
-14.5154
-14.5194
-14.4048
-14.242
-14.0821
-13.9648
-0.372468
-0.328586
-0.557593
-0.72387
-1.00516
-1.43117
-2.0587
-2.92469
-3.98279
-5.29304
-6.68369
-8.27827
-9.77435
-11.1543
-12.1776
-12.7786
-13.0112
-12.9565
-12.7481
-12.4605
-12.144
-11.8445
-11.6061
-0.372206
-0.328723
-0.558283
-0.72418
-1.00573
-1.43178
-2.05799
-2.91943
-3.96373
-5.24691
-6.57995
-8.08541
-9.4349
-10.6291
-11.4132
-11.7638
-11.7419
-11.4461
-11.0327
-10.5763
-10.1192
-9.71473
-9.38022
-0.372022
-0.328974
-0.558976
-0.724556
-1.00634
-1.4323
-2.05687
-2.91324
-3.94301
-5.19805
-6.47233
-7.88777
-9.09083
-10.1045
-10.6556
-10.7714
-10.5122
-9.99095
-9.37964
-8.77683
-8.2139
-7.70865
-7.31407
-0.371912
-0.329279
-0.559625
-0.724926
-1.00691
-1.43263
-2.05527
-2.90616
-3.9208
-5.14685
-6.36161
-7.68647
-8.74401
-9.58303
-9.90863
-9.80615
-9.3253
-8.60077
-7.82368
-7.07812
-6.40554
-5.76944
-5.24268
-0.371645
-0.329566
-0.560153
-0.725222
-1.00737
-1.43281
-2.05353
-2.89901
-3.8989
-5.09652
-6.25357
-7.49067
-8.40943
-9.08549
-9.20125
-8.90266
-8.22145
-7.33142
-6.40591
-5.45057
-4.6098
-3.92245
-3.32278
-0.372258
-0.330246
-0.561002
-0.725706
-1.00798
-1.4333
-2.05264
-2.89385
-3.88118
-5.05378
-6.1602
-7.31899
-8.1171
-8.65141
-8.58805
-8.12059
-7.2724
-6.25754
-5.15257
-4.05684
-3.08546
-2.36692
-1.7823
-0.37286
-0.330766
-0.56177
-0.726115
-1.0087
-1.43443
-2.0536
-2.89262
-3.87105
-5.02387
-6.08978
-7.18271
-7.88455
-8.29968
-8.09692
-7.48637
-6.51588
-5.3805
-4.08473
-3.00577
-2.00029
-1.18637
-0.578199
-0.373473
-0.331132
-0.562468
-0.726421
-1.00958
-1.43638
-2.05678
-2.89593
-3.86914
-5.00712
-6.04198
-7.07971
-7.70813
-8.02045
-7.71824
-6.9842
-5.91944
-4.65984
-3.25612
-2.20931
-1.18414
-0.253004
0.438817
-0.374185
-0.331422
-0.563126
-0.726654
-1.01066
-1.43923
-2.06227
-2.90362
-3.87479
-5.00191
-6.01353
-7.00448
-7.5791
-7.79997
-7.4349
-6.59228
-5.43862
-4.11516
-2.71063
-1.59159
-0.500863
0.509446
1.31233
-0.374919
-0.331647
-0.563716
-0.726807
-1.01197
-1.44303
-2.07002
-2.91535
-3.88688
-5.00593
-5.99982
-6.94984
-7.48528
-7.622
-7.22137
-6.28058
-5.03659
-3.75778
-2.38568
-1.10616
0.0743222
1.13234
2.0458
-0.375568
-0.331782
-0.56421
-0.726936
-1.01359
-1.44779
-2.07978
-2.93031
-3.90365
-5.0163
-5.99589
-6.9093
-7.41512
-7.47463
-7.05305
-6.02816
-4.70803
-3.53713
-2.14049
-0.706526
0.54102
1.63682
2.6269
-0.376068
-0.331843
-0.564625
-0.7271
-1.0156
-1.4536
-2.09152
-2.94817
-3.9242
-5.03132
-5.99842
-6.87845
-7.36007
-7.35012
-6.91039
-5.82622
-4.44804
-3.34573
-1.85993
-0.355244
0.893721
2.00927
3.02819
-0.376626
-0.331948
-0.56518
-0.727572
-1.01828
-1.46065
-2.10516
-2.96842
-3.94728
-5.04881
-6.00339
-6.85149
-7.30955
-7.23729
-6.77242
-5.65194
-4.21759
-3.0977
-1.49798
0.0299776
1.25836
2.36517
3.36414
-0.376875
-0.331823
-0.565437
-0.727825
-1.02093
-1.4678
-2.1188
-2.988
-3.96823
-5.0624
-6.00218
-6.8186
-7.25141
-7.1272
-6.63208
-5.51288
-4.01777
-2.81715
-1.18914
0.269045
1.43336
2.47949
3.4162
-0.37718
-0.331835
-0.565924
-0.728533
-1.02425
-1.47575
-2.13299
-3.00722
-3.98718
-5.07229
-5.99521
-6.78111
-7.18663
-7.02208
-6.48917
-5.39533
-3.82685
-2.51197
-0.963153
0.397161
1.49856
2.45589
3.28985
-0.37756
-0.332011
-0.566691
-0.729739
-1.02823
-1.48435
-2.1474
-3.02566
-4.00382
-5.07844
-5.98269
-6.73917
-7.11457
-6.91886
-6.34075
-5.27618
-3.63489
-2.20436
-0.813114
0.463638
1.51197
2.38006
3.07828
-0.377953
-0.332237
-0.567611
-0.731243
-1.0325
-1.49304
-2.16122
-3.04235
-4.0172
-5.08013
-5.96421
-6.69226
-7.03496
-6.81513
-6.19049
-5.15094
-3.46983
-1.96415
-0.754962
0.456055
1.44166
2.20629
2.74746
-0.378377
-0.332481
-0.56865
-0.732907
-1.03683
-1.5014
-2.1739
-3.05677
-4.02704
-5.0775
-5.94063
-6.64153
-6.95069
-6.71158
-6.04592
-5.02469
-3.36035
-1.84554
-0.787574
0.365395
1.28892
1.92791
2.30497
-0.378881
-0.332747
-0.56981
-0.734674
-1.04108
-1.50925
-2.18531
-3.06902
-4.03396
-5.07186
-5.91436
-6.59009
-6.86751
-6.61191
-5.91484
-4.90378
-3.3124
-1.84472
-0.8724
0.233061
1.1154
1.64299
1.85769
-0.379482
-0.33303
-0.571053
-0.736427
-1.0451
-1.51643
-2.19542
-3.07938
-4.03876
-5.06461
-5.88773
-6.54068
-6.79031
-6.51911
-5.80158
-4.79273
-3.31011
-1.91486
-0.959015
0.110017
0.968737
1.46969
1.60746
-0.380139
-0.333283
-0.572272
-0.738024
-1.04872
-1.52281
-2.20426
-3.08816
-4.04217
-5.0569
-5.8624
-6.49482
-6.72164
-6.43443
-5.70727
-4.69535
-3.32988
-2.00376
-1.0208
0.0150575
0.867413
1.43953
1.59894
-0.380805
-0.333474
-0.573375
-0.739339
-1.05183
-1.52834
-2.21194
-3.09573
-4.04485
-5.04945
-5.83919
-6.45265
-6.66152
-6.35727
-5.63041
-4.61258
-3.35374
-2.07869
-1.05244
-0.0629708
0.806572
1.50814
1.79177
-0.381432
-0.333587
-0.574307
-0.740347
-1.05444
-1.53316
-2.21878
-3.10263
-4.04749
-5.04293
-5.81855
-6.4138
-6.60882
-6.28664
-5.56886
-4.54881
-3.37346
-2.1362
-1.05964
-0.130569
0.749888
1.58943
2.05681
-0.382011
-0.333645
-0.575084
-0.741091
-1.05666
-1.53749
-2.22517
-3.10937
-4.05063
-5.03762
-5.80032
-6.3772
-6.56127
-6.22071
-5.51877
-4.50213
-3.37473
-2.1688
-1.05295
-0.181028
0.663044
1.60621
2.2759
-0.382533
-0.333673
-0.575742
-0.741677
-1.05868
-1.54162
-2.23151
-3.11639
-4.05461
-5.0335
-5.78386
-6.34138
-6.51588
-6.15668
-5.47383
-4.46437
-3.35487
-2.16667
-1.04292
-0.213862
0.548667
1.48842
2.33298
-0.383013
-0.333706
-0.576341
-0.7422
-1.06064
-1.54576
-2.23803
-3.12384
-4.0593
-5.02998
-5.76777
-6.304
-6.46851
-6.08986
-5.42531
-4.42141
-3.32165
-2.1338
-1.04288
-0.238168
0.437642
1.25761
2.15701
-0.38345
-0.333759
-0.576923
-0.74275
-1.06268
-1.55006
-2.24484
-3.13168
-4.06433
-5.02615
-5.75033
-6.26251
-6.41467
-6.01453
-5.36421
-4.36456
-3.26814
-2.06653
-1.03889
-0.259149
0.366854
1.01323
1.84354
-0.383862
-0.333848
-0.577524
-0.743371
-1.06482
-1.55454
-2.25186
-3.13958
-4.06901
-5.02082
-5.72956
-6.21428
-6.3499
-5.92453
-5.2808
-4.29289
-3.18822
-1.96054
-0.990658
-0.254863
0.372111
0.851874
1.55118
-0.384246
-0.333966
-0.578153
-0.744087
-1.0671
-1.55915
-2.25892
-3.1472
-4.07264
-5.01292
-5.70391
-6.15737
-6.271
-5.81508
-5.16592
-4.20019
-3.09108
-1.83452
-0.88097
-0.188997
0.469152
0.843466
1.38091
-0.384614
-0.334112
-0.578818
-0.744883
-1.06947
-1.5638
-2.26579
-3.15409
-4.07456
-5.00156
-5.67221
-6.0907
-6.17624
-5.68358
-5.01337
-4.06935
-2.97472
-1.71141
-0.729301
-0.0542007
0.634467
0.997946
1.38997
-0.384961
-0.334269
-0.579502
-0.745746
-1.07188
-1.56838
-2.27227
-3.15992
-4.0743
-4.98629
-5.63413
-6.01435
-6.06596
-5.53055
-4.82254
-3.88422
-2.81622
-1.58536
-0.560181
0.133549
0.805818
1.24083
1.55789
-0.385293
-0.334433
-0.580199
-0.746637
-1.07426
-1.57275
-2.27816
-3.16442
-4.07156
-4.96695
-5.58983
-5.92929
-5.94212
-5.35918
-4.59885
-3.64291
-2.59602
-1.42733
-0.375121
0.373598
1.01656
1.48912
1.81469
-0.385604
-0.334587
-0.580888
-0.747537
-1.07657
-1.57685
-2.28332
-3.16745
-4.06628
-4.94376
-5.54007
-5.83733
-5.80812
-5.17507
-4.35274
-3.36005
-2.31928
-1.21894
-0.163312
0.65221
1.30303
1.75811
2.09645
-0.385897
-0.33473
-0.581563
-0.748411
-1.07876
-1.5806
-2.28766
-3.16893
-4.05851
-4.91707
-5.4858
-5.74046
-5.66794
-4.98503
-4.0974
-3.05932
-2.01296
-0.967386
0.0707893
0.922889
1.60209
2.04825
2.35927
-0.386161
-0.33485
-0.582206
-0.74925
-1.08081
-1.58395
-2.29116
-3.1689
-4.04843
-4.88738
-5.42815
-5.64084
-5.5257
-4.79627
-3.84637
-2.76518
-1.70891
-0.698383
0.30164
1.14567
1.83177
2.2866
2.56427
-0.386402
-0.334951
-0.582818
-0.750032
-1.08269
-1.58689
-2.29379
-3.16739
-4.03622
-4.85513
-5.36803
-5.54017
-5.38487
-4.61518
-3.61126
-2.49824
-1.43281
-0.445601
0.500976
1.30861
1.96175
2.41232
2.67989
-0.386607
-0.335025
-0.583386
-0.750761
-1.0844
-1.58943
-2.29559
-3.16449
-4.02209
-4.82073
-5.30621
-5.4398
-5.24812
-4.44673
-3.40012
-2.27209
-1.20245
-0.23627
0.658116
1.41117
2.0049
2.41675
2.67869
-0.386782
-0.335081
-0.583916
-0.751425
-1.08593
-1.59154
-2.29656
-3.16024
-4.00615
-4.78438
-5.24309
-5.34039
-5.1169
-4.29393
-3.21677
-2.09392
-1.02385
-0.0812934
0.771618
1.4568
1.97865
2.34034
2.59521
-0.386912
-0.335112
-0.5844
-0.752033
-1.08729
-1.59325
-2.29674
-3.15471
-3.98851
-4.74621
-5.17886
-5.24217
-4.9916
-4.1578
-3.06001
-1.9646
-0.889918
0.0233316
0.839589
1.46227
1.91655
2.25269
2.50294
-0.387005
-0.335128
-0.584844
-0.752579
-1.08848
-1.59456
-2.29613
-3.14788
-3.96916
-4.70615
-5.11339
-5.1448
-4.87151
-4.03767
-2.92502
-1.87376
-0.79366
0.0841295
0.860902
1.44344
1.85141
2.17974
2.42191
-0.387046
-0.335124
-0.585241
-0.753072
-1.0895
-1.59547
-2.29473
-3.13977
-3.94807
-4.66411
-5.04642
-5.04773
-4.75523
-3.9315
-2.80698
-1.80173
-0.734496
0.105104
0.840778
1.4013
1.78589
2.10701
2.33348
-0.387042
-0.335108
-0.585598
-0.753505
-1.09035
-1.59598
-2.29253
-3.13031
-3.92513
-4.61983
-4.9775
-4.95014
-4.64084
-3.8362
-2.70435
-1.73324
-0.710561
0.0924678
0.790941
1.33365
1.70435
2.01456
2.22607
-0.386977
-0.335075
-0.585906
-0.753888
-1.09104
-1.59609
-2.2895
-3.11945
-3.90025
-4.5731
-4.90623
-4.85127
-4.52637
-3.74778
-2.61806
-1.66285
-0.71059
0.0583812
0.720505
1.24368
1.60145
1.89827
2.09878
-0.386859
-0.335032
-0.586172
-0.754212
-1.09155
-1.59576
-2.2856
-3.1071
-3.87325
-4.52363
-4.83213
-4.75039
-4.4101
-3.66178
-2.54875
-1.59415
-0.718766
0.0147031
0.636228
1.13335
1.47839
1.76173
1.95554
-0.386673
-0.334971
-0.586384
-0.754481
-1.09188
-1.59499
-2.2808
-3.09318
-3.844
-4.47123
-4.75489
-4.64698
-4.29078
-3.57391
-2.49355
-1.53491
-0.721297
-0.0306835
0.541658
1.00492
1.33898
1.61148
1.80166
-0.386424
-0.334901
-0.586547
-0.754683
-1.09201
-1.59374
-2.27501
-3.07757
-3.81234
-4.41568
-4.67419
-4.54071
-4.16773
-3.48081
-2.44737
-1.49116
-0.717468
-0.0764704
0.440845
0.866333
1.19238
1.45737
1.64436
-0.386097
-0.33481
-0.586648
-0.754822
-1.09195
-1.59199
-2.26821
-3.06018
-3.77815
-4.35685
-4.58991
-4.43149
-4.0409
-3.3803
-2.40461
-1.46316
-0.716669
-0.124696
0.342303
0.731913
1.04991
1.30704
1.48919
-0.385699
-0.334706
-0.586691
-0.754882
-1.09165
-1.5897
-2.26031
-3.04091
-3.74132
-4.29466
-4.50199
-4.31949
-3.91076
-3.27154
-2.36009
-1.4463
-0.725404
-0.173247
0.255837
0.614214
0.920322
1.16465
1.34028
-0.385212
-0.334579
-0.586661
-0.754863
-1.09111
-1.58683
-2.25126
-3.01967
-3.70175
-4.22909
-4.41051
-4.20502
-3.77817
-3.15459
-2.3085
-1.43319
-0.739043
-0.214679
0.188352
0.519371
0.808902
1.03456
1.20036
-0.384644
-0.334434
-0.586559
-0.754747
-1.09031
-1.58335
-2.241
-2.99638
-3.6594
-4.16019
-4.31562
-4.0886
-3.64429
-3.03082
-2.24615
-1.41733
-0.747356
-0.24606
0.13476
0.443697
0.714631
0.919193
1.07315
-0.383986
-0.334259
-0.586375
-0.754534
-1.08922
-1.57919
-2.2294
-2.97087
-3.6141
-4.08792
-4.21749
-3.97086
-3.5106
-2.90219
-2.17113
-1.39539
-0.745296
-0.262686
0.0994444
0.388213
0.636915
0.819977
0.960886
-0.38328
-0.334098
-0.586134
-0.754242
-1.08793
-1.57453
-2.21675
-2.94339
-3.56601
-4.01237
-4.11592
-3.85178
-3.37771
-2.7731
-2.0888
-1.36738
-0.73394
-0.28468
0.0321401
0.323907
0.560965
0.726081
0.856607
-0.382883
-0.333982
-0.585953
-0.753935
-1.08635
-1.56882
-2.20142
-2.9107
-3.51013
-3.92762
-4.00522
-3.72817
-3.24673
-2.64102
-1.98974
-1.33805
-0.729782
-0.242626
0.0902945
0.352393
0.536599
0.666746
0.779763
-0.38115
-0.332668
-0.584038
-0.751615
-1.08176
-1.55812
-2.17779
-2.86563
-3.4383
-3.82642
-3.88119
-3.59877
-3.1231
-2.53936
-1.93112
-1.35699
-0.816966
-0.382539
-0.0738353
0.186786
0.377174
0.512402
0.626717
-0.379624
-0.331473
-0.581894
-0.748823
-1.07554
-1.54353
-2.14646
-2.80833
-3.35034
-3.70815
-3.74272
-3.45813
-2.99031
-2.43256
-1.85926
-1.35001
-0.889086
-0.514633
-0.227109
0.0250695
0.213574
0.351486
0.465794
-0.378306
-0.330631
-0.579854
-0.746072
-1.0684
-1.52599
-2.10857
-2.74
-3.24702
-3.57215
-3.5876
-3.30265
-2.84174
-2.30261
-1.74881
-1.27757
-0.871873
-0.52775
-0.256286
-0.0312858
0.132644
0.255177
0.357887
-0.376654
-0.329783
-0.577506
-0.742915
-1.05974
-1.50464
-2.06295
-2.65909
-3.12637
-3.41538
-3.41199
-3.13051
-2.6841
-2.16962
-1.63714
-1.1843
-0.806593
-0.482
-0.230419
-0.0346331
0.104806
0.20751
0.296561
-0.374493
-0.328775
-0.574621
-0.738913
-1.04885
-1.47832
-2.00807
-2.56381
-2.98658
-3.23593
-3.21351
-2.94009
-2.52007
-2.04525
-1.54861
-1.11251
-0.75226
-0.44786
-0.215558
-0.0390495
0.0863294
0.176783
0.255328
-0.371838
-0.327621
-0.571162
-0.733877
-1.03531
-1.44638
-1.94326
-2.45385
-2.82821
-3.03519
-2.99335
-2.72986
-2.34148
-1.91339
-1.46425
-1.05631
-0.71856
-0.437283
-0.221504
-0.0575947
0.0610122
0.145989
0.217633
-0.368657
-0.326255
-0.566988
-0.727494
-1.01865
-1.40825
-1.86821
-2.32974
-2.65321
-2.81676
-2.75558
-2.50089
-2.14114
-1.7569
-1.36055
-0.994768
-0.690485
-0.437445
-0.240124
-0.0890575
0.0245328
0.105486
0.172168
-0.364719
-0.324432
-0.56171
-0.719239
-0.99815
-1.36317
-1.78256
-2.19206
-2.4637
-2.58465
-2.50571
-2.25921
-1.92476
-1.58052
-1.2391
-0.924529
-0.662474
-0.443361
-0.269198
-0.133597
-0.0266527
0.0501538
0.112684
-0.359857
-0.321905
-0.554913
-0.708507
-0.973023
-1.31043
-1.68604
-2.04163
-2.26208
-2.34322
-2.25061
-2.01572
-1.7088
-1.40419
-1.11691
-0.855108
-0.637332
-0.453709
-0.304402
-0.186212
-0.0895879
-0.0174629
0.0416305
-0.353967
-0.318499
-0.546277
-0.694855
-0.942758
-1.24975
-1.5792
-1.88028
-2.05187
-2.09796
-1.9982
-1.78198
-1.50857
-1.24424
-1.00633
-0.792235
-0.614574
-0.464065
-0.339271
-0.238948
-0.154508
-0.0875286
-0.0321286
-0.347086
-0.314153
-0.53564
-0.677999
-0.907167
-1.1815
-1.46359
-1.71133
-1.83832
-1.85571
-1.7561
-1.56554
-1.33038
-1.10487
-0.908596
-0.734259
-0.589952
-0.467888
-0.36509
-0.281264
-0.210077
-0.150138
-0.0994759
-0.339182
-0.308784
-0.522852
-0.65776
-0.866329
-1.10661
-1.34171
-1.53927
-1.62773
-1.62355
-1.53001
-1.36856
-1.17263
-0.982632
-0.819905
-0.677141
-0.558946
-0.459695
-0.375283
-0.305336
-0.246142
-0.194683
-0.14983
-0.330225
-0.302293
-0.507747
-0.633929
-0.820458
-1.02638
-1.21666
-1.36907
-1.42632
-1.40733
-1.3229
-1.18991
-1.03077
-0.872782
-0.737002
-0.618819
-0.520119
-0.438181
-0.368302
-0.309495
-0.259886
-0.216716
-0.17804
-0.320038
-0.294439
-0.490044
-0.606284
-0.769877
-0.942343
-1.09162
-1.20525
-1.23883
-1.21052
-1.13567
-1.02745
-0.900529
-0.771202
-0.657777
-0.559358
-0.475567
-0.406204
-0.34722
-0.297045
-0.254375
-0.217516
-0.1844
-0.308472
-0.284973
-0.469442
-0.574607
-0.715036
-0.856125
-0.969481
-1.0511
-1.06772
-1.03415
-0.967711
-0.879217
-0.778779
-0.67464
-0.580364
-0.49847
-0.427567
-0.368177
-0.317499
-0.274095
-0.236745
-0.204454
-0.175664
-0.295277
-0.273524
-0.445604
-0.538792
-0.656537
-0.769261
-0.852368
-0.908328
-0.913233
-0.877321
-0.817741
-0.744099
-0.664105
-0.581438
-0.50404
-0.436013
-0.376426
-0.325581
-0.281943
-0.244115
-0.211074
-0.18225
-0.156757
-0.280311
-0.259784
-0.4183
-0.498898
-0.595113
-0.683017
-0.741499
-0.777147
-0.774153
-0.738158
-0.684574
-0.622197
-0.557472
-0.492371
-0.430247
-0.374515
-0.325216
-0.282144
-0.244954
-0.212499
-0.183688
-0.158079
-0.135515
-0.263365
-0.2434
-0.387398
-0.45519
-0.531536
-0.598259
-0.637222
-0.657006
-0.648818
-0.614745
-0.567263
-0.514309
-0.461252
-0.409925
-0.361182
-0.316661
-0.276923
-0.241373
-0.210029
-0.182486
-0.157832
-0.135424
-0.115416
-0.244396
-0.224171
-0.352973
-0.408122
-0.466559
-0.515512
-0.539439
-0.547204
-0.535835
-0.505357
-0.46467
-0.420561
-0.377244
-0.336659
-0.299009
-0.264438
-0.23338
-0.2053
-0.179825
-0.157008
-0.1365
-0.117628
-0.100378
-0.223337
-0.201957
-0.315284
-0.358322
-0.400955
-0.435199
-0.448032
-0.447264
-0.434244
-0.408328
-0.37497
-0.339465
-0.304956
-0.273115
-0.24431
-0.218103
-0.194446
-0.173092
-0.153421
-0.135326
-0.118841
-0.103604
-0.0894602
-0.200316
-0.17688
-0.274841
-0.306627
-0.335664
-0.358003
-0.363135
-0.35701
-0.34342
-0.322123
-0.295856
-0.268289
-0.241671
-0.217164
-0.195241
-0.175583
-0.157787
-0.141714
-0.12694
-0.113109
-0.100254
-0.0883239
-0.0771917
-0.175543
-0.14926
-0.232439
-0.254178
-0.271989
-0.285072
-0.285321
-0.276569
-0.263276
-0.246051
-0.226028
-0.205376
-0.185636
-0.167499
-0.151281
-0.136878
-0.123879
-0.112043
-0.101185
-0.0910045
-0.0813878
-0.0723768
-0.0639531
-0.149442
-0.119795
-0.189233
-0.202535
-0.211679
-0.218057
-0.215643
-0.206418
-0.194267
-0.180471
-0.165547
-0.150562
-0.136463
-0.123633
-0.112159
-0.101976
-0.092822
-0.0844125
-0.0766107
-0.0692852
-0.0623217
-0.0557272
-0.0495321
-0.122662
-0.0895251
-0.146823
-0.153632
-0.156779
-0.158844
-0.155411
-0.14716
-0.136873
-0.126005
-0.115004
-0.104326
-0.094482
-0.0856697
-0.0778517
-0.0708953
-0.0646359
-0.0588513
-0.053399
-0.0482063
-0.0432402
-0.0385039
-0.0340419
-0.0960348
-0.0599344
-0.107105
-0.109583
-0.109187
-0.109057
-0.105739
-0.0992469
-0.0912885
-0.083139
-0.0752558
-0.0678936
-0.0612714
-0.0555
-0.050489
-0.0460853
-0.0421203
-0.0384514
-0.0349503
-0.0315625
-0.0282725
-0.0251093
-0.022135
-0.070692
-0.0326937
-0.0720166
-0.0721829
-0.070186
-0.0694369
-0.0669452
-0.0623717
-0.0567196
-0.0509387
-0.0454519
-0.0404526
-0.0360386
-0.0322658
-0.0290585
-0.026287
-0.0237949
-0.0214735
-0.0192339
-0.0170398
-0.0148848
-0.0127852
-0.0108134
-0.0477792
-0.00947975
-0.0430831
-0.0425248
-0.0401331
-0.0397071
-0.0384414
-0.0357178
-0.0321301
-0.0283892
-0.024846
-0.0216623
-0.0188842
-0.0165418
-0.0145802
-0.0129135
-0.01142
-0.010015
-0.00863495
-0.0072615
-0.0058991
-0.00456287
-0.00329695
-0.0283972
0.0085865
-0.0210485
-0.0208315
-0.0185838
-0.0188118
-0.0188882
-0.0178705
-0.0160312
-0.0139403
-0.0119053
-0.0100752
-0.00846486
-0.0070968
-0.00593065
-0.00492612
-0.00400216
-0.00311012
-0.0022064
-0.00129099
-0.000373536
0.000515764
0.00136076
-0.0137009
0.0200069
-0.0065083
-0.00681761
-0.00470868
-0.00556479
-0.00710678
-0.00813951
-0.00861576
-0.0089598
-0.00943397
-0.0101563
-0.0110721
-0.0121432
-0.0132875
-0.0144558
-0.0155661
-0.0165743
-0.017434
-0.0181472
-0.0187179
-0.0191804
-0.019533
-0.00496993
0.0231595
0.0018034
0.00125362
0.00437143
0.00497492
0.00464235
0.00461039
0.00524081
0.00627645
0.00748237
0.0086425
0.00976168
0.0108246
0.0118891
0.0129462
0.0140338
0.0151314
0.0162428
0.017331
0.0183983
0.0194249
0.0203985
0.517369
0.514086
0.588313
0.714294
0.889104
1.12569
1.44725
1.88907
2.48471
3.27439
4.28819
5.55766
7.0975
8.91172
10.9776
13.2442
15.63
18.0332
20.3456
22.47
24.3413
25.9178
27.2256
0.486251
0.491704
0.555202
0.671051
0.83174
1.05208
1.35386
1.76808
2.32764
3.07019
4.02691
5.22669
6.68387
8.39872
10.3462
12.4727
14.697
16.919
19.0355
20.9572
22.6259
24.0121
25.1425
0.447509
0.459183
0.511679
0.614759
0.758316
0.956409
1.22999
1.60618
2.11585
2.79407
3.67221
4.77752
6.12438
7.71124
9.51244
11.4742
13.517
15.5447
17.4595
19.1799
20.6542
21.8629
22.8318
0.400202
0.414471
0.456176
0.543155
0.666303
0.836612
1.07365
1.40123
1.84732
2.444
3.22196
4.20748
5.41543
6.8445
8.47059
10.2426
12.0853
13.9081
15.6199
17.1458
18.4398
19.4897
20.3189
0.343265
0.355854
0.387251
0.454583
0.552923
0.689771
0.881847
1.14981
1.51816
2.01565
2.67147
3.51137
4.55131
5.79221
7.21399
8.77138
10.3964
12.0063
13.5176
14.8615
15.9953
16.9103
17.6265
0.274933
0.282398
0.303533
0.348261
0.416526
0.513584
0.652124
0.849046
1.12506
1.50514
2.01641
2.68422
3.52632
4.54757
5.73453
7.05098
8.43958
9.82869
11.1439
12.3223
13.3229
14.1354
14.7732
0.192377
0.194602
0.204391
0.224092
0.256823
0.306958
0.382846
0.496855
0.665326
0.909121
1.25263
1.72053
2.33291
3.1003
4.01846
5.06345
6.19224
7.34752
8.46676
9.49395
10.3892
11.1366
11.7406
0.0928124
0.0917233
0.0874808
0.0790375
0.0705662
0.0655152
0.0680847
0.0854172
0.128793
0.214728
0.364677
0.602814
0.952741
1.43279
2.05059
2.79762
3.64809
4.56138
5.48796
6.37825
7.19152
7.90229
8.50264
0.625896
0.558733
0.779627
0.925796
1.13765
1.42376
1.78892
2.31808
3.01329
3.94498
5.11385
6.56524
8.27843
10.2554
12.437
14.7593
17.12
19.41
21.5254
23.3904
24.9618
26.2488
27.2578
0.627705
0.557453
0.778973
0.923299
1.13125
1.41613
1.78107
2.30947
3.00539
3.93967
5.11671
6.5859
8.33125
10.3599
12.6195
15.0518
17.5604
20.0367
22.3736
24.4829
26.3092
27.8433
29.0795
0.629451
0.55468
0.777433
0.921971
1.12616
1.40919
1.77364
2.30008
2.99497
3.92842
5.10886
6.5887
8.35779
10.4271
12.7514
15.2761
17.9104
20.5469
23.077
25.4032
27.4605
29.2217
30.6742
0.631131
0.550524
0.773521
0.920751
1.12211
1.40289
1.76682
2.29055
2.98319
3.91298
5.09226
6.57549
8.35891
10.4569
12.8306
15.4286
18.1647
20.9326
23.623
26.1316
28.3866
30.3446
31.9902