/*--------------------------------*- C++ -*----------------------------------*\
  =========                 |
  \\      /  F ield         | OpenFOAM: The Open Source CFD Toolbox
   \\    /   O peration     | Website:  https://openfoam.org
    \\  /    A nd           | Version:  7
     \\/     M anipulation  |
\*---------------------------------------------------------------------------*/
FoamFile
{
    version     2.0;
    format      ascii;
    class       surfaceScalarField;
    location    "75";
    object      phi;
}
// * * * * * * * * * * * * * * * * * * * * * * * * * * * * * * * * * * * * * //

dimensions      [0 3 -1 0 0 0 0];

internalField   nonuniform List<scalar> 
25449
(
68.7991
45.1638
-20.584
51.0158
33.4233
-15.64
38.0242
24.8761
-11.8845
28.4585
18.6037
-9.03805
21.3711
13.9698
-6.88239
16.0937
10.5276
-5.2502
12.1486
7.95948
-4.01437
9.19024
6.03679
-3.07846
6.96644
4.59308
-2.36928
5.29161
3.50614
-1.83131
4.02836
2.68565
-1.4224
3.07448
2.06448
-1.1106
2.35367
1.59259
-0.871781
1.80876
1.2326
-0.687698
1.39684
0.956636
-0.544707
1.08555
0.743935
-0.432648
0.850483
0.579098
-0.344032
0.673145
0.450731
-0.273393
0.5395
0.350402
-0.216756
0.43888
0.271839
-0.171219
0.363182
0.210313
-0.134616
0.306252
0.162236
-0.105306
0.124704
-0.0819136
0.263462
54.1019
64.0539
40.3135
47.2118
30.1675
35.022
22.6537
26.1176
17.0609
19.5626
12.8813
14.7072
9.74791
11.0928
7.39301
8.39169
5.61967
6.36642
4.28217
4.84364
3.27217
3.69565
2.50881
2.82784
1.93155
2.16985
1.49496
1.66919
1.16486
1.28673
0.915477
0.993323
0.727283
0.767291
0.585473
0.592541
0.478776
0.457099
0.398607
0.352009
0.338432
0.270488
0.293283
0.207386
0.158557
0.259429
41.5645
78.0948
31.182
57.5942
23.4628
42.7413
17.699
31.8814
13.3812
23.8805
10.1382
17.9501
7.69756
13.5335
5.85763
10.2316
4.46871
7.75534
3.41912
5.89323
2.62528
4.48948
2.02453
3.4286
1.56977
2.62461
1.22558
2.01339
0.965222
1.54709
0.768509
1.19004
0.620111
0.915689
0.508367
0.704286
0.424378
0.541088
0.361351
0.415036
0.314108
0.31773
0.278709
0.242784
0.185068
0.252199
31.574
88.228
23.9246
65.2436
18.1449
48.5209
13.7755
36.2508
10.4709
27.1851
7.97071
20.4503
6.07839
15.4258
4.64557
11.6644
3.56024
8.84067
2.73782
6.71565
2.11443
5.11288
1.6418
3.90123
1.28349
2.98292
1.01196
2.28492
0.806382
1.75266
0.650958
1.34546
0.533671
1.03298
0.445349
0.792608
0.378974
0.607463
0.329177
0.464833
0.29186
0.355048
0.263904
0.27074
0.206005
0.242967
23.9082
95.3048
18.3808
70.7711
14.0971
52.8045
10.7972
39.5508
8.26622
29.716
6.33105
22.3855
4.85459
16.9023
3.72978
12.7892
2.8737
9.69675
2.22257
7.36679
1.72752
5.60793
1.35125
4.27749
1.06539
3.26879
0.848353
2.50195
0.683768
1.91725
0.559162
1.47007
0.465016
1.12712
0.394042
0.863582
0.340648
0.660857
0.300547
0.504934
0.270462
0.385133
0.247899
0.293303
0.222927
0.230977
18.1591
100.029
14.2489
74.6813
11.0952
55.9582
8.59693
42.0491
6.6421
31.6709
5.12546
23.9021
3.95574
18.072
3.05735
13.6876
2.36932
10.3848
1.84348
7.89263
1.44214
6.00927
1.13611
4.58352
0.902943
3.50195
0.725463
2.67943
0.590542
2.05217
0.488151
1.57246
0.410606
1.20467
0.352003
0.922185
0.307803
0.705057
0.274518
0.538219
0.249478
0.410174
0.230649
0.312132
0.237088
0.216488
13.9148
102.957
11.2232
77.3729
8.91128
58.2702
7.00423
43.9561
5.47071
33.2044
4.25796
25.1149
3.30968
19.0203
2.57399
14.4233
2.00629
10.9525
1.56989
8.32903
1.23527
6.34389
0.979128
4.83966
0.783297
3.69778
0.633745
2.82898
0.519684
2.16623
0.432829
1.65931
0.366814
1.27068
0.316731
0.972268
0.278801
0.742988
0.250113
0.566907
0.228436
0.431851
0.212067
0.328501
0.249448
0.199707
10.8137
104.52
9.0351
79.1515
7.34501
59.9603
5.86932
45.4318
4.63978
34.4339
3.64423
26.1104
2.853
19.8115
2.23197
15.0444
1.74865
11.4358
1.37473
8.70296
1.08657
6.63205
0.86506
5.06117
0.695064
3.86778
0.564753
2.95929
0.464974
2.26601
0.38867
1.73562
0.3304
1.32895
0.285964
1.0167
0.252123
0.776828
0.226378
0.592652
0.206813
0.451416
0.191952
0.343361
0.260724
0.180676
8.23418
107.404
6.14399
81.2417
4.61175
61.4925
3.48149
46.5621
2.64281
35.2726
2.01739
26.7358
1.54906
20.2799
1.19709
15.3963
0.931754
11.7011
0.731214
8.9035
0.57929
6.78398
0.463942
5.17652
0.376192
3.95553
0.309331
3.02615
0.258336
2.317
0.219426
1.77453
0.189738
1.35864
0.16709
1.03935
0.149816
0.794103
0.136641
0.605827
0.126593
0.461464
0.118939
0.351015
0.266567
0.113097
6.05987
109.534
4.52205
82.7795
3.39741
62.6171
2.56984
47.3897
1.95689
35.8856
1.50042
27.1923
1.1589
20.6214
0.902319
15.6529
0.708878
11.8946
0.562604
9.04977
0.451691
6.89489
0.36736
5.26085
0.303072
4.01981
0.253946
3.07528
0.216335
2.35461
0.187495
1.80337
0.165354
1.38078
0.148332
1.05637
0.135231
0.807205
0.125136
0.615922
0.11735
0.46925
0.111352
0.357013
0.271194
0.106725
4.4083
111.084
3.2928
83.895
2.47845
63.4315
1.88049
47.9876
1.43827
36.3278
1.10931
27.5213
0.86334
20.8674
0.678544
15.8377
0.539155
12.034
0.433652
9.15528
0.353535
6.97501
0.292479
5.3219
0.245779
4.06651
0.209927
3.11113
0.182309
2.38223
0.160961
1.82471
0.144408
1.39733
0.131528
1.06925
0.121476
0.817257
0.113614
0.623785
0.107454
0.47541
0.102638
0.361829
0.274962
0.098871
3.16249
112.19
2.36807
84.6894
1.78836
64.0112
1.36323
48.4128
1.04906
36.642
0.815478
27.7548
0.640819
21.042
0.50951
15.969
0.410349
12.1331
0.33516
9.23047
0.277921
7.03225
0.234138
5.36569
0.200472
4.10018
0.174436
3.13717
0.15418
2.40249
0.138325
1.84057
0.125841
1.40982
0.115953
1.07914
0.108082
0.825127
0.101799
0.630068
0.0967751
0.480434
0.0927742
0.36583
0.278146
0.0895903
2.22989
112.958
1.67797
85.2413
1.27428
64.4149
0.978007
48.709
0.758858
36.8611
0.595807
27.9179
0.473731
21.1641
0.381775
16.061
0.312165
12.2027
0.259215
9.28342
0.21874
7.07272
0.187599
5.39683
0.163456
4.12432
0.14457
3.15605
0.129657
2.4174
0.117767
1.85246
0.1082
1.41938
0.100439
1.0869
0.0941049
0.831462
0.0889228
0.635251
0.0846827
0.484674
0.0812367
0.369276
0.280938
0.0784447
1.54119
113.469
1.17051
85.612
0.897147
64.6883
0.695519
48.9107
0.545731
37.0109
0.433902
28.0297
0.349866
21.2481
0.286293
16.1245
0.237946
12.2511
0.200966
9.3204
0.172511
7.10118
0.150416
5.41892
0.133067
4.14167
0.119263
3.16986
0.108125
2.42854
0.099013
1.86157
0.0914694
1.42693
0.0851651
1.09321
0.0798695
0.836757
0.0754206
0.6397
0.0716942
0.488401
0.0686061
0.372364
0.283482
0.0660624
1.0311
113.785
0.796546
85.8465
0.619956
64.8649
0.487882
49.0427
0.388668
37.1101
0.313947
28.1044
0.257327
21.3048
0.214133
16.1677
0.181008
12.2842
0.155435
9.34597
0.135547
7.12107
0.119884
5.43459
0.107352
4.1542
0.0971322
3.18008
0.0886364
2.43703
0.0814484
1.86876
0.0752881
1.43309
0.0699653
1.09853
0.0653584
0.841365
0.0613886
0.64367
0.0579937
0.491796
0.0551346
0.375224
0.285868
0.0527486
0.664502
113.955
0.529794
85.9812
0.423007
64.9716
0.340351
49.1254
0.276641
37.1738
0.227707
28.1534
0.18999
21.3425
0.160758
16.197
0.138012
12.3069
0.120184
9.3638
0.106096
7.13515
0.0947711
5.44591
0.0854732
4.1635
0.0776435
3.18791
0.070893
2.44379
0.0649608
1.87469
0.0596911
1.43836
0.0549925
1.10323
0.0508209
0.845536
0.0471551
0.647336
0.0439748
0.494976
0.0412696
0.377929
0.288143
0.0389948
0.402458
114.015
0.341091
86.0426
0.284453
65.0283
0.236583
49.1733
0.197443
37.213
0.166097
28.1847
0.141126
21.3674
0.121222
16.2169
0.10536
12.3228
0.0926397
9.37652
0.0823592
7.14544
0.0738707
5.4544
0.0666752
4.1707
0.0603868
3.1942
0.054749
2.44942
0.0496064
1.87983
0.0448899
1.44308
0.0405778
1.10754
0.0366804
0.849434
0.0332156
0.650801
0.0301893
0.498003
0.0276075
0.380511
0.290318
0.0254328
0.219503
113.993
0.211385
86.0507
0.190035
65.0496
0.16591
49.1974
0.143101
37.2358
0.123175
28.2046
0.106321
21.3843
0.092265
16.2309
0.080666
12.3344
0.0710782
9.38611
0.0631186
7.1534
0.0563491
5.46117
0.0504207
4.17663
0.0450541
3.19956
0.0400759
2.4544
0.0353986
1.88451
0.0310113
1.44746
0.02694
1.11161
0.0232305
0.853144
0.0199251
0.654106
0.0170426
0.500885
0.0145944
0.382959
0.292371
0.0125417
0.0961878
113.909
0.12617
86.0208
0.128924
65.0469
0.120261
49.206
0.107608
37.2484
0.0944851
28.2178
0.0822919
21.3965
0.0714854
16.2417
0.062195
12.3437
0.0542686
9.39403
0.0475258
7.16014
0.0416497
5.46705
0.0363769
4.1819
0.0314857
3.20446
0.0268486
2.45904
0.0224187
1.88894
0.0182211
1.45166
0.0143123
1.11552
0.0107597
0.856697
0.0076177
0.657249
0.00490645
0.503596
0.00263578
0.38523
0.294254
0.000752136
0.0170079
113.778
0.073856
85.9639
0.092449
65.0283
0.0931374
49.2054
0.0860958
37.2555
0.0763868
28.2275
0.0663189
21.4066
0.0568597
16.2512
0.0484496
12.3521
0.0411121
9.40137
0.0347849
7.16647
0.0292082
5.47262
0.0241574
4.18695
0.0194329
3.20918
0.0149262
2.46355
0.010611
1.89326
0.00653207
1.45574
0.00276367
1.11929
-0.000620464
0.860081
-0.00356656
0.660195
-0.00606623
0.506096
-0.0081178
0.387282
0.295926
-0.00978953
-0.0303283
113.612
0.0452481
85.8883
0.073708
64.9998
0.0793485
49.1997
0.0746548
37.2602
0.0659312
28.2362
0.0561742
21.4163
0.0467011
16.2607
0.038151
12.3607
0.0306384
9.40888
0.0241608
7.17294
0.0184697
5.47831
0.0133469
4.19207
0.00859042
3.21394
0.00409213
2.46804
-0.000169326
1.89752
-0.00414387
1.45971
-0.00775267
1.1229
-0.0109267
0.863255
-0.0136196
0.662888
-0.0158396
0.508316
-0.0176072
0.389049
0.297326
-0.0190066
-0.0538276
113.42
0.0343608
85.8001
0.0682114
64.966
0.0755068
49.1924
0.0707157
37.2649
0.0611646
28.2457
0.050372
21.4271
0.03988
16.2712
0.0304393
12.3701
0.0221911
9.41713
0.0151517
7.17998
0.00905076
5.48442
0.00365502
4.19747
-0.00125879
3.21885
-0.00581324
2.4726
-0.0100377
1.90174
-0.0138869
1.46356
-0.0172867
1.1263
-0.0201843
0.866153
-0.0225537
0.665258
-0.0244274
0.51019
-0.0258563
0.390479
0.298411
-0.0269417
-0.0595621
113.208
0.036686
85.7039
0.0725916
64.9301
0.0790925
49.1859
0.0723923
37.2716
0.0606576
28.2575
0.0478055
21.44
0.0355264
16.2834
0.0246281
12.381
0.0152305
9.42653
0.00733549
7.18788
0.000622134
5.49113
-0.0051765
4.20327
-0.0103192
3.22399
-0.0149536
2.47723
-0.0191259
1.90592
-0.022807
1.46724
-0.0259397
1.12943
-0.0284973
0.868711
-0.0304858
0.667246
-0.0319631
0.511667
-0.0330166
0.391532
0.299152
-0.0337571
-0.398368
113.081
-0.305644
85.6112
-0.237177
64.8616
-0.186205
49.1349
-0.147957
37.2334
-0.119175
28.2287
-0.097506
21.4183
-0.0812634
16.2672
-0.0691284
12.3689
-0.0601374
9.41754
-0.0535174
7.18126
-0.0487891
5.4864
-0.0455778
4.20006
-0.0436069
3.22202
-0.0426054
2.47623
-0.0422816
1.90559
-0.042341
1.4673
-0.0425185
1.12961
-0.0426369
0.86883
-0.0426058
0.667215
-0.0424079
0.51147
-0.0420986
0.391223
0.298797
-0.041743
-0.38826
112.962
-0.301081
85.524
-0.236609
64.7971
-0.188554
49.0869
-0.152447
37.1973
-0.125239
28.2015
-0.104728
21.3978
-0.0893355
16.2518
-0.0778159
12.3573
-0.0692528
9.40898
-0.062891
7.1749
-0.0582604
5.48177
-0.0549796
4.19678
-0.0527657
3.21981
-0.0513457
2.47481
-0.0504368
1.90468
-0.0497744
1.46664
-0.0491414
1.12898
-0.048422
0.868111
-0.0475877
0.666381
-0.0466669
0.510549
-0.0457454
0.390302
0.297936
-0.0448837
-0.378234
112.85
-0.296215
85.442
-0.235452
64.7364
-0.1901
49.0415
-0.155974
37.1632
-0.130222
28.1757
-0.110777
21.3783
-0.0961642
16.2372
-0.085203
12.3464
-0.0770194
9.40079
-0.0708724
7.16875
-0.0662989
5.4772
-0.0629091
4.19339
-0.060414
3.21732
-0.0585416
2.47294
-0.0570247
1.90317
-0.0556378
1.46526
-0.0542202
1.12756
-0.0527193
0.86661
-0.0511622
0.664824
-0.0496126
0.509
-0.0481716
0.388861
0.296654
-0.0468889
-0.368346
112.744
-0.291154
85.3648
-0.233855
64.6791
-0.191026
48.9987
-0.158745
37.1309
-0.134345
28.1513
-0.115889
21.3599
-0.101997
16.2233
-0.0915462
12.3359
-0.0837023
9.39295
-0.0777355
7.16278
-0.0731869
5.47265
-0.0696572
4.18986
-0.0668519
3.21451
-0.0645039
2.47059
-0.0623692
1.90103
-0.0602695
1.46316
-0.058107
1.1254
-0.0558898
0.864393
-0.0536923
0.662626
-0.0516043
0.506912
-0.049732
0.386989
0.295032
-0.0481096
-0.35863
112.646
-0.285973
85.2921
-0.231924
64.625
-0.191461
48.9583
-0.160908
37.1003
-0.137772
28.1282
-0.120238
21.3423
-0.107013
16.2101
-0.0970319
12.326
-0.0894938
9.38541
-0.0836782
7.15697
-0.0791284
5.4681
-0.0754342
4.18617
-0.0722976
3.21138
-0.0694606
2.46776
-0.0667102
1.89828
-0.0639216
1.46037
-0.0610635
1.12254
-0.0582008
0.861531
-0.0554458
0.659871
-0.0529065
0.504373
-0.0506836
0.384766
0.293141
-0.0487923
-0.349109
112.553
-0.280729
85.2237
-0.229742
64.574
-0.191504
48.92
-0.162575
37.0714
-0.140624
28.1063
-0.123953
21.3257
-0.111349
16.1975
-0.101802
12.3164
-0.0945404
9.37815
-0.0888515
7.15128
-0.0842788
5.46353
-0.0804011
4.18229
-0.0769191
3.20789
-0.0735886
2.46443
-0.0702346
1.89493
-0.066791
1.45692
-0.0632931
1.11904
-0.0598578
0.858096
-0.0566256
0.656639
-0.053714
0.501461
-0.0512107
0.382263
0.29104
-0.04911
-0.339799
112.466
-0.275461
85.1594
-0.227366
64.5259
-0.191229
48.8839
-0.163831
37.044
-0.142996
28.0854
-0.127135
21.3098
-0.115111
16.1855
-0.105966
12.3073
-0.0989549
9.37114
-0.0933715
7.1457
-0.0887582
5.45892
-0.084683
4.17821
-0.0808478
3.20406
-0.0770272
2.46061
-0.0730902
1.89099
-0.0690332
1.45287
-0.0649551
1.11497
-0.0610188
0.85416
-0.0573838
0.653004
-0.0541689
0.498246
-0.0514435
0.379538
0.288778
-0.049181
-0.33071
112.384
-0.270202
85.0989
-0.224846
64.4806
-0.190697
48.8497
-0.164744
37.0181
-0.144962
28.0656
-0.129864
21.2947
-0.118384
16.174
-0.109612
12.2985
-0.102829
9.36436
-0.0973327
7.1402
-0.0926647
5.45425
-0.0883822
4.17393
-0.0841919
3.19987
-0.0798919
2.45631
-0.0753995
1.8865
-0.0707762
1.44824
-0.066179
1.11037
-0.0618091
0.84979
-0.0578379
0.649033
-0.0543779
0.494787
-0.0514774
0.376638
0.286391
-0.0490903
-0.321848
112.308
-0.264975
85.042
-0.222219
64.4378
-0.189953
48.8175
-0.16537
36.9935
-0.146584
28.0469
-0.132204
21.2803
-0.121235
16.163
-0.112811
12.2901
-0.106235
9.35778
-0.100812
7.13478
-0.0960779
5.44951
-0.0915826
4.16944
-0.0870407
3.19533
-0.0822784
2.45155
-0.0772638
1.88149
-0.0721245
1.44311
-0.067069
1.10531
-0.0623276
0.845049
-0.0580779
0.644783
-0.0544221
0.491131
-0.0513847
0.3736
0.283909
-0.0489024
-0.313218
112.236
-0.2598
84.9886
-0.219514
64.3975
-0.189037
48.787
-0.165754
36.9702
-0.147911
28.029
-0.134211
21.2666
-0.123721
16.1525
-0.115622
12.282
-0.109237
9.3514
-0.103873
7.12941
-0.099065
5.44471
-0.094355
4.16473
-0.0894699
3.19044
-0.0842677
2.44634
-0.0787688
1.87599
-0.0731649
1.4375
-0.0677103
1.09986
-0.0626543
0.839993
-0.0581767
0.640306
-0.0543662
0.487321
-0.0512234
0.370458
0.281357
-0.0486712
-0.304819
112.169
-0.254694
84.9385
-0.216759
64.3596
-0.187983
48.7582
-0.165934
36.9481
-0.148986
28.0121
-0.13593
21.2536
-0.125893
16.1425
-0.118098
12.2742
-0.111887
9.34519
-0.106571
7.1241
-0.101684
5.43982
-0.0967614
4.1598
-0.0915457
3.18523
-0.0859307
2.44073
-0.0799888
1.87005
-0.073972
1.43149
-0.0681742
1.09406
-0.0628566
0.834676
-0.0581965
0.635646
-0.0542668
0.483391
-0.0510449
0.367236
0.278755
-0.0484423
-0.296654
112.107
-0.249667
84.8915
-0.213974
64.3239
-0.186818
48.7311
-0.165944
36.9273
-0.149848
27.996
-0.137402
21.2411
-0.127793
16.1329
-0.120283
12.2667
-0.114233
9.33914
-0.108956
7.11882
-0.103987
5.43485
-0.0988562
4.15467
-0.0933265
3.1797
-0.0873293
2.43473
-0.0809887
1.8637
-0.0746102
1.42511
-0.0685216
1.08797
-0.0629906
0.829145
-0.0581876
0.630843
-0.0541676
0.479371
-0.0508872
0.363956
0.276117
-0.0482486
-0.288721
112.049
-0.244732
84.8475
-0.211178
64.2904
-0.185567
48.7054
-0.165815
36.9075
-0.150529
27.9807
-0.138663
21.2293
-0.129458
16.1237
-0.122216
12.2594
-0.116314
9.33323
-0.111071
7.11358
-0.106018
5.4298
-0.100687
4.14934
-0.0948638
3.17387
-0.0885182
2.42839
-0.081825
1.85701
-0.0751356
1.41842
-0.0688054
1.08164
-0.0631041
0.823444
-0.0581907
0.625929
-0.0541036
0.475284
-0.0507825
0.360635
0.273455
-0.0481207
-0.281019
111.995
-0.239897
84.8064
-0.208389
64.2589
-0.184254
48.6813
-0.165571
36.8888
-0.151058
27.9662
-0.139745
21.218
-0.130924
16.1148
-0.123934
12.2524
-0.11817
9.32747
-0.112954
7.10836
-0.107819
5.42466
-0.1023
4.14382
-0.0962053
3.16778
-0.0895474
2.42173
-0.0825486
1.85001
-0.0755986
1.41147
-0.0690734
1.07512
-0.0632395
0.81761
-0.0582441
0.620934
-0.0541105
0.471151
-0.0507632
0.357287
0.27078
-0.0480878
-0.273547
111.945
-0.235171
84.768
-0.20562
64.2293
-0.182898
48.6586
-0.165238
36.8712
-0.151464
27.9524
-0.140677
21.2072
-0.132221
16.1064
-0.12547
12.2457
-0.119835
9.32183
-0.114642
7.10317
-0.109428
5.41945
-0.103733
4.13813
-0.0973935
3.16144
-0.0904609
2.4148
-0.0832042
1.84276
-0.0760427
1.40431
-0.0693664
1.06844
-0.0634348
0.811679
-0.0583834
0.615883
-0.0542213
0.466988
-0.0508585
0.353925
0.2681
-0.0481786
-0.266304
111.898
-0.230561
84.7323
-0.202886
64.2016
-0.181517
48.6372
-0.164839
36.8545
-0.151772
27.9393
-0.141488
21.1969
-0.133379
16.0983
-0.126855
12.2392
-0.121339
9.31632
-0.116168
7.098
-0.11088
5.41416
-0.105024
4.13227
-0.0984682
3.15488
-0.0913002
2.40763
-0.0838329
1.83529
-0.0765078
1.39698
-0.069722
1.06166
-0.0637261
0.805683
-0.0586441
0.6108
-0.0544702
0.462815
-0.0511039
0.350558
0.265424
-0.0484278
-0.259288
111.856
-0.226073
84.6991
-0.2002
64.1758
-0.18013
48.6172
-0.164393
36.8388
-0.152005
27.9269
-0.142202
21.1871
-0.134425
16.0905
-0.128115
12.2329
-0.122714
9.31092
-0.117563
7.09285
-0.112207
5.4088
-0.106208
4.12627
-0.0994653
3.14814
-0.092102
2.40027
-0.0844713
1.82766
-0.0770287
1.38954
-0.0701728
1.0548
-0.0641467
0.799657
-0.0590574
0.605712
-0.054888
0.458645
-0.0515291
0.347199
0.262752
-0.0488572
-0.252496
111.816
-0.221714
84.6683
-0.197573
64.1516
-0.178753
48.5983
-0.163921
36.8239
-0.152184
27.9152
-0.142844
21.1777
-0.135384
16.083
-0.12928
12.2267
-0.123985
9.30562
-0.118856
7.08772
-0.11344
5.40339
-0.107316
4.12015
-0.100418
3.14124
-0.0929006
2.39275
-0.085153
1.81991
-0.0776377
1.38202
-0.070749
1.04791
-0.0647249
0.793633
-0.0596516
0.600638
-0.0554949
0.454489
-0.0521444
0.343849
0.260091
-0.049483
-0.245927
111.781
-0.217488
84.6398
-0.195017
64.1291
-0.177401
48.5807
-0.16344
36.81
-0.152332
27.9041
-0.143436
21.1689
-0.13628
16.0759
-0.130372
12.2208
-0.125181
9.30043
-0.120074
7.08261
-0.114607
5.39792
-0.108379
4.11392
-0.101358
3.13422
-0.0937271
2.38512
-0.0859082
1.81209
-0.0783642
1.37448
-0.0714778
1.04103
-0.0654833
0.787638
-0.0604474
0.595602
-0.0563137
0.450355
-0.0529816
0.340517
0.257457
-0.0503478
-0.239579
111.748
-0.213402
84.6137
-0.192542
64.1083
-0.176088
48.5643
-0.16297
36.7969
-0.152467
27.8936
-0.144
21.1604
-0.137136
16.069
-0.131417
12.2151
-0.126326
9.29534
-0.121244
7.07753
-0.115736
5.39241
-0.109426
4.10761
-0.102313
3.12711
-0.0946104
2.37741
-0.0867644
1.80425
-0.0792347
1.36695
-0.0723864
1.03418
-0.0664434
0.781695
-0.0614628
0.590621
-0.057383
0.446275
-0.054099
0.337232
0.254857
-0.0514993
-0.233449
111.718
-0.20946
84.5897
-0.190158
64.089
-0.174829
48.5489
-0.162525
36.7845
-0.152609
27.8837
-0.144555
21.1523
-0.137974
16.0624
-0.132437
12.2096
-0.127442
9.29035
-0.12239
7.07248
-0.116851
5.38687
-0.110481
4.10124
-0.10331
3.11994
-0.0955761
2.36968
-0.0877461
1.79642
-0.0802718
1.35948
-0.0734989
1.0274
-0.0676324
0.775828
-0.0627271
0.585716
-0.0587209
0.442269
-0.0554977
0.334009
0.2523
-0.0529409
-0.227537
111.692
-0.205668
84.5678
-0.187876
64.0712
-0.173636
48.5347
-0.162123
36.773
-0.152775
27.8743
-0.145123
21.1447
-0.138815
16.0561
-0.133454
12.2042
-0.128555
9.28545
-0.123536
7.06746
-0.117978
5.38132
-0.111572
4.09483
-0.104373
3.11274
-0.0966491
2.36195
-0.0888773
1.78864
-0.0814962
1.35209
-0.0748358
1.02074
-0.0690795
0.770072
-0.0642718
0.580908
-0.0603415
0.438338
-0.0571849
0.330852
0.249805
-0.0546901
-0.221839
111.668
-0.202028
84.548
-0.185703
64.0549
-0.172523
48.5215
-0.161778
36.7623
-0.152983
27.8655
-0.145721
21.1374
-0.139679
16.0501
-0.13449
12.199
-0.129685
9.28064
-0.124705
7.06248
-0.11914
5.37575
-0.112721
4.08841
-0.105524
3.10554
-0.0978511
2.35428
-0.0901787
1.78097
-0.0829243
1.34484
-0.0764108
1.01423
-0.0707967
0.764457
-0.0661153
0.576227
-0.0622901
0.434513
-0.0592194
0.327781
0.247388
-0.0568031
-0.216355
111.647
-0.198546
84.5302
-0.18365
64.04
-0.171502
48.5094
-0.161507
36.7523
-0.153251
27.8573
-0.146369
21.1305
-0.140585
16.0443
-0.135565
12.194
-0.130854
9.27593
-0.125919
7.05754
-0.120357
5.37019
-0.113951
4.08201
-0.106785
3.09837
-0.0992025
2.3467
-0.0916692
1.77344
-0.084572
1.33774
-0.0782419
1.0079
-0.0728064
0.759021
-0.0682751
0.571696
-0.0645854
0.430823
-0.0616243
0.32482
0.245046
-0.0592823
-0.211081
111.63
-0.195226
84.5143
-0.181724
64.0265
-0.170584
48.4982
-0.16132
36.743
-0.153592
27.8496
-0.147083
21.124
-0.141552
16.0388
-0.136698
12.1892
-0.132081
9.27131
-0.127198
7.05266
-0.121651
5.36464
-0.115282
4.07564
-0.10817
3.09126
-0.100716
2.33924
-0.0933595
1.76608
-0.0864465
1.33083
-0.0803321
1.00178
-0.0751025
0.753791
-0.0707441
0.567338
-0.0671871
0.427266
-0.0643353
0.321968
0.242776
-0.0620657
-0.198897
111.605
-0.180468
84.4959
-0.16643
64.0124
-0.155704
48.4875
-0.147247
36.7346
-0.140429
27.8427
-0.134793
21.1184
-0.130034
16.034
-0.125849
12.185
-0.12182
9.26728
-0.117503
7.04834
-0.112533
5.35967
-0.106821
4.06993
-0.100424
3.08486
-0.0937755
2.33259
-0.0872411
1.75955
-0.0810994
1.32469
-0.0757127
0.996397
-0.0711037
0.749182
-0.0672961
0.56353
-0.0641601
0.42413
-0.0616127
0.319421
0.240741
-0.0595784
-0.158338
111.586
-0.143924
84.4815
-0.132941
64.0015
-0.124551
48.4791
-0.117928
36.728
-0.112576
27.8374
-0.108134
21.114
-0.104363
16.0302
-0.101036
12.1817
-0.0978171
9.26406
-0.0943729
7.0449
-0.0904125
5.35571
-0.0858956
4.06541
-0.0808617
3.07983
-0.0756864
2.32742
-0.0706319
1.75449
-0.0658879
1.31994
-0.0617688
0.992277
-0.058228
0.745641
-0.055327
0.560629
-0.0529334
0.421737
-0.0509608
0.317449
0.239164
-0.0493831
-0.126022
111.571
-0.114727
84.4702
-0.10612
63.9928
-0.0995474
48.4725
-0.0943539
36.7228
-0.0901475
27.8332
-0.0866444
21.1104
-0.0836559
16.0273
-0.0810112
12.179
-0.0784431
9.26149
-0.0756997
7.04215
-0.0725504
5.35256
-0.0689817
4.06184
-0.0650218
3.07587
-0.0609862
2.32338
-0.0570665
1.75057
-0.0533935
1.31627
-0.0502302
0.989113
-0.0475143
0.742924
-0.0452714
0.558386
-0.0434334
0.419899
-0.0419244
0.31594
0.237952
-0.0407125
-0.100264
111.559
-0.0913867
84.4613
-0.0846208
63.9861
-0.0794574
48.4674
-0.0753741
36.7187
-0.0720612
27.8299
-0.0692937
21.1077
-0.0669229
16.0249
-0.0648197
12.1769
-0.0627725
9.25945
-0.0605897
7.03997
-0.0580902
5.35006
-0.055272
4.05902
-0.0521603
3.07276
-0.0490083
2.32023
-0.045964
1.74753
-0.0431197
1.31343
-0.0406766
0.98667
-0.0385997
0.740847
-0.0368489
0.556635
-0.0354253
0.418476
-0.0342872
0.314802
0.237029
-0.0333639
-0.0797451
111.549
-0.0727495
84.4543
-0.0674179
63.9808
-0.0633511
48.4633
-0.0601335
36.7155
-0.0575192
27.8273
-0.0553297
21.1055
-0.0534472
16.023
-0.0517739
12.1752
-0.0501428
9.25782
-0.048407
7.03823
-0.0464259
5.34808
-0.0442002
4.05679
-0.0417572
3.07031
-0.0392907
2.31776
-0.0369225
1.74516
-0.0347207
1.31122
-0.0328301
0.984778
-0.0312355
0.739252
-0.0298646
0.555264
-0.0287551
0.417366
-0.0278935
0.313941
0.23633
-0.0271941
-0.0633753
111.542
-0.0578244
84.4488
-0.0535944
63.9765
-0.0503699
48.4601
-0.0478188
36.7129
-0.0457447
27.8252
-0.0440048
21.1038
-0.0425055
16.0215
-0.0411715
12.1739
-0.0398716
9.25652
-0.0384927
7.03686
-0.0369262
5.34651
-0.0351717
4.05504
-0.0332598
3.0684
-0.0313321
2.31584
-0.0294918
1.74332
-0.0277951
1.30953
-0.0263373
0.98332
-0.0251043
0.738019
-0.0240366
0.554196
-0.0231748
0.416504
-0.0225118
0.313278
0.235804
-0.021986
-0.0505067
111.536
-0.0462089
84.4445
-0.0429337
63.9732
-0.0404381
48.4576
-0.0384611
36.7109
-0.0368488
27.8236
-0.0354895
21.1024
-0.0343106
16.0203
-0.0332556
12.1728
-0.0322221
9.25548
-0.0311225
7.03575
-0.0298732
5.34526
-0.0284722
4.05364
-0.0269536
3.06688
-0.0254213
2.3143
-0.0239636
1.74186
-0.0226322
1.3082
-0.0214862
0.982174
-0.0205087
0.737041
-0.0196672
0.553354
-0.0189902
0.415827
-0.0184615
0.312749
0.235393
-0.018051
-0.0399912
111.532
-0.0364693
84.441
-0.0337867
63.9706
-0.0317444
48.4556
-0.0301298
36.7093
-0.0288168
27.8223
-0.0277132
21.1013
-0.0267591
16.0194
-0.0259094
12.172
-0.0250836
9.25466
-0.0242137
7.03489
-0.0232362
5.34429
-0.0221461
4.05255
-0.0209768
3.06571
-0.0197986
2.31312
-0.0186819
1.74074
-0.0176763
1.30719
-0.0168071
0.981304
-0.0160616
0.736296
-0.0154288
0.552721
-0.0149192
0.415317
-0.014509
0.312339
0.235075
-0.0141905
-0.0321655
111.523
-0.0254464
84.4342
-0.0201233
63.9652
-0.0159147
48.4513
-0.0125265
36.7059
-0.00975496
27.8195
-0.00743843
21.099
-0.00546226
16.0174
-0.00374281
12.1703
-0.00217988
9.25309
-0.00069359
7.0334
0.000781206
5.34281
0.00224005
4.05109
0.00365585
3.0643
0.00495542
2.31182
0.00607872
1.73962
0.00703435
1.30624
0.00780613
0.980532
0.00840877
0.735692
0.00889831
0.552231
0.00927338
0.414942
0.00955665
0.312055
0.234875
0.00975619
-0.0337733
111.514
-0.0267181
84.4272
-0.0211297
63.9597
-0.0167123
48.4469
-0.0131566
36.7024
-0.0102476
27.8166
-0.00781455
21.0965
-0.00573698
16.0153
-0.00392812
12.1685
-0.00228459
9.25145
-0.000725194
7.03184
0.000817418
5.34127
0.00233706
4.04957
0.003804
3.06283
0.00514821
2.31048
0.00630049
1.73847
0.00726565
1.30527
0.00805437
0.979743
0.00866545
0.735081
0.00915864
0.551737
0.00953675
0.414564
0.00982087
0.311771
0.234679
0.0100171
-0.0354614
111.505
-0.0280533
84.4198
-0.0221862
63.9538
-0.0175497
48.4423
-0.0138182
36.6986
-0.0107651
27.8135
-0.00820984
21.094
-0.00602581
16.0131
-0.00412306
12.1666
-0.00239488
9.24972
-0.000758774
7.0302
0.000854392
5.33965
0.00243738
4.04798
0.00395633
3.06131
0.00534553
2.30909
0.00652664
1.73729
0.007498
1.3043
0.0083072
0.978933
0.00892586
0.734462
0.00942156
0.551241
0.00980306
0.414182
0.010089
0.311485
0.23448
0.010288
-0.0372338
111.495
-0.0294549
84.412
-0.0232952
63.9476
-0.0184289
48.4374
-0.014513
36.6947
-0.0113087
27.8103
-0.00862516
21.0913
-0.00632942
16.0108
-0.004328
12.1646
-0.00251095
9.2479
-0.00079434
7.02849
0.00089234
5.33797
0.00254122
4.04634
0.00411349
3.05974
0.0055471
2.30766
0.00675786
1.73607
0.00773579
1.30332
0.00856627
0.978102
0.00919128
0.733837
0.00968919
0.550743
0.0100739
0.413797
0.010363
0.311196
0.234273
0.0105702
-0.0390942
111.484
-0.0309265
84.4038
-0.0244596
63.9412
-0.0193519
48.4323
-0.0152426
36.6906
-0.0118796
27.807
-0.00906157
21.0885
-0.00664855
16.0084
-0.00454347
12.1625
-0.00263304
9.24599
-0.000831982
7.02669
0.000931378
5.3362
0.00264854
4.04462
0.00427585
3.05811
0.00575264
2.30618
0.00699513
1.73483
0.00798343
1.30233
0.00883129
0.977254
0.0094619
0.733206
0.00996097
0.550243
0.010349
0.413409
0.0106427
0.310902
0.234052
0.0108626
-0.0410478
111.473
-0.0324714
84.3953
-0.0256819
63.9344
-0.0203209
48.427
-0.0160086
36.6863
-0.0124792
27.8034
-0.0095201
21.0855
-0.00698399
16.0059
-0.00476996
12.1602
-0.0027614
9.24398
-0.000871732
7.0248
0.000971713
5.33436
0.0027595
4.04283
0.00444388
3.05643
0.00596249
2.30466
0.0072395
1.73355
0.00824336
1.30133
0.00910073
0.976396
0.00973714
0.73257
0.0102346
0.549745
0.0106245
0.413018
0.0109233
0.310603
0.233819
0.0111563
-0.0430984
111.462
-0.0340933
84.3863
-0.0269652
63.9272
-0.0213382
48.4213
-0.0168129
36.6818
-0.013109
27.7997
-0.0100019
21.0824
-0.00733653
16.0032
-0.00500805
12.1579
-0.00289626
9.24187
-0.000913559
7.02281
0.00101369
5.33243
0.00287434
4.04097
0.00461806
3.05468
0.00617743
2.3031
0.00749124
1.73224
0.00851444
1.30031
0.00937207
0.975538
0.0100141
0.731927
0.0105063
0.549252
0.0108915
0.412633
0.0111917
0.310302
0.233579
0.0114319
-0.0452515
111.45
-0.0357959
84.3768
-0.0283122
63.9198
-0.0224062
48.4154
-0.0176575
36.677
-0.0137705
27.7958
-0.0105081
21.0792
-0.00770705
16.0004
-0.00525817
12.1555
-0.00303781
9.23965
-0.000957519
7.02073
0.00105754
5.33042
0.00299333
4.03903
0.00479862
3.05288
0.00639831
2.3015
0.00774947
1.73089
0.00879262
1.29926
0.00964244
0.974688
0.0102882
0.731281
0.0107714
0.548769
0.0111424
0.412261
0.0114347
0.31001
0.233343
0.0116701
-0.0475117
111.437
-0.0375834
84.3669
-0.0297264
63.9119
-0.0235274
48.4092
-0.0185442
36.6721
-0.0144652
27.7918
-0.0110399
21.0757
-0.00809633
15.9975
-0.00552092
12.1529
-0.00318635
9.23732
-0.00100361
7.01855
0.00110343
5.32831
0.00311661
4.03702
0.00498552
3.05101
0.00662572
2.29986
0.00801254
1.7295
0.00907312
1.2982
0.0099099
0.97385
0.0105558
0.730635
0.0110251
0.548299
0.0113709
0.411915
0.0116444
0.309736
0.233124
0.011864
-0.0498845
111.424
-0.0394599
84.3564
-0.0312109
63.9037
-0.0247044
48.4027
-0.0194753
36.6668
-0.0151948
27.7875
-0.0115986
21.0721
-0.00850533
15.9944
-0.00579685
12.1502
-0.0033421
9.23486
-0.00105198
7.01626
0.00115133
5.32611
0.00324421
4.03493
0.00517855
3.04907
0.00685999
2.29818
0.00827872
1.72808
0.00935254
1.29713
0.0101736
0.973029
0.0108142
0.729995
0.0112635
0.547849
0.0115769
0.411602
0.0118191
0.309493
0.23293
0.0120123
-0.0523755
111.41
-0.0414297
84.3455
-0.0327695
63.895
-0.0259401
48.3959
-0.0204528
36.6613
-0.0159609
27.783
-0.0121854
21.0684
-0.00893493
15.9911
-0.00608659
12.1473
-0.00350547
9.23228
-0.00110279
7.01386
0.00120107
5.3238
0.00337608
4.03275
0.00537724
3.04707
0.00710103
2.29645
0.00854623
1.72664
0.00962858
1.29605
0.0104337
0.972223
0.0110605
0.729368
0.0114855
0.547423
0.0117637
0.411323
0.0119645
0.309292
0.232768
0.0121265
-0.0549908
111.396
-0.0434977
84.334
-0.0344052
63.8859
-0.0272373
48.3887
-0.021479
36.6556
-0.0167654
27.7783
-0.0128016
21.0644
-0.0093861
15.9877
-0.00639081
12.1443
-0.00367683
9.22956
-0.0011563
7.01134
0.00125241
5.32139
0.00351201
4.03049
0.00558094
3.045
0.00734798
2.29469
0.00881352
1.72517
0.00989907
1.29496
0.0106902
0.971432
0.0112928
0.728765
0.0116909
0.547025
0.0119371
0.411076
0.0120927
0.309136
0.232639
0.0122216
-0.0577361
111.38
-0.0456687
84.3219
-0.0361227
63.8764
-0.0285989
48.3812
-0.0225564
36.6495
-0.0176101
27.7733
-0.0134488
21.0602
-0.00985993
15.9841
-0.00671018
12.1412
-0.00385668
9.22671
-0.00121287
7.00869
0.00130487
5.31888
0.00365161
4.02814
0.00578866
3.04286
0.00759906
2.29287
0.00907971
1.72369
0.0101626
1.29388
0.0109425
0.970651
0.0115119
0.728195
0.0118784
0.546658
0.0121003
0.410854
0.0122159
0.309021
0.232544
0.0123109
-0.0606182
111.364
-0.0479475
84.3093
-0.0379253
63.8663
-0.0300283
48.3733
-0.0236874
36.6432
-0.018497
27.7681
-0.0141284
21.0559
-0.0103575
15.9803