/*--------------------------------*- C++ -*----------------------------------*\
  =========                 |
  \\      /  F ield         | OpenFOAM: The Open Source CFD Toolbox
   \\    /   O peration     | Website:  https://openfoam.org
    \\  /    A nd           | Version:  7
     \\/     M anipulation  |
\*---------------------------------------------------------------------------*/
FoamFile
{
    version     2.0;
    format      ascii;
    class       volVectorField;
    location    "75";
    object      U;
}
// * * * * * * * * * * * * * * * * * * * * * * * * * * * * * * * * * * * * * //

dimensions      [0 1 -1 0 0 0 0];

internalField   nonuniform List<vector> 
12842
(
(15.4281 2.44713 2.18789e-19)
(15.4302 2.45764 2.9062e-19)
(15.4321 2.46866 1.09052e-19)
(15.4345 2.48212 -2.67608e-19)
(15.437 2.49946 1.16709e-18)
(15.4393 2.52217 0)
(15.4412 2.55202 0)
(15.442 2.59117 1.21521e-19)
(15.4407 2.64211 -1.0608e-18)
(15.4361 2.70765 -2.71214e-20)
(15.4265 2.79072 -4.37536e-19)
(15.4096 2.89402 1.80442e-20)
(15.3831 3.01962 -2.71686e-19)
(15.3446 3.16833 -2.61916e-20)
(15.2922 3.33932 4.57238e-20)
(15.2248 3.52968 1.29061e-19)
(15.1429 3.73429 8.74624e-20)
(15.0484 3.94625 0)
(14.9449 4.15761 -1.80479e-21)
(14.837 4.36053 -2.33856e-20)
(14.7297 4.54801 4.15104e-21)
(14.6277 4.71605 1.21531e-21)
(14.5346 4.8584 9.47352e-21)
(15.429 2.44693 -2.31174e-19)
(15.4332 2.45632 0)
(15.4372 2.46681 1.31472e-18)
(15.4423 2.47978 -8.72561e-19)
(15.4483 2.49666 -9.49271e-19)
(15.4551 2.51899 0)
(15.4627 2.54868 1.81237e-18)
(15.4709 2.58805 0)
(15.4789 2.63984 1.80899e-18)
(15.4856 2.70714 1.57872e-19)
(15.4894 2.79316 8.07918e-19)
(15.488 2.90094 1.15495e-18)
(15.4786 3.03279 2.61378e-19)
(15.4582 3.18957 -6.08082e-19)
(15.4238 3.37029 0)
(15.3734 3.57156 -1.42803e-19)
(15.3064 3.78755 -1.48215e-19)
(15.2239 4.01052 3.12456e-19)
(15.129 4.2317 0)
(15.0262 4.44269 2.03226e-20)
(14.9211 4.63602 1.02278e-19)
(14.8187 4.8082 -2.62053e-20)
(14.7242 4.95092 4.41693e-20)
(15.4301 2.44651 0)
(15.4357 2.45471 0)
(15.4414 2.46444 3.06883e-19)
(15.4487 2.47664 4.9046e-18)
(15.4577 2.49266 0)
(15.4684 2.51409 0)
(15.4812 2.54293 4.14313e-19)
(15.496 2.58166 -1.84926e-18)
(15.5125 2.63322 -8.23361e-19)
(15.5297 2.70098 -8.13892e-19)
(15.5461 2.7885 -1.53824e-18)
(15.5594 2.89917 -1.13017e-18)
(15.5665 3.0356 -2.60645e-19)
(15.5636 3.19886 9.31584e-19)
(15.5472 3.38786 0)
(15.5141 3.59887 1.73546e-19)
(15.4628 3.82543 -2.2139e-19)
(15.3936 4.05901 -2.23896e-19)
(15.3091 4.29002 -4.44714e-19)
(15.2139 4.50946 2.71491e-19)
(15.1138 4.70929 -8.74255e-20)
(15.0141 4.88656 0)
(14.9211 5.0307 -2.476e-20)
(15.4312 2.44588 -2.17497e-19)
(15.4376 2.45292 6.33355e-19)
(15.4447 2.46181 -2.0304e-18)
(15.4539 2.47307 -7.82971e-18)
(15.4654 2.48797 7.14615e-19)
(15.4796 2.50812 -2.5149e-18)
(15.497 2.53559 -1.77852e-19)
(15.5179 2.57298 1.82419e-18)
(15.5421 2.62344 3.08805e-18)
(15.5691 2.69057 -1.90102e-18)
(15.5974 2.77827 3.71403e-18)
(15.6247 2.89031 -4.4584e-19)
(15.6477 3.02968 5.79085e-19)
(15.6622 3.1977 2.01881e-18)
(15.6638 3.39332 -3.43331e-19)
(15.6486 3.61258 4.40324e-19)
(15.6139 3.8485 1.58043e-19)
(15.5594 4.09187 4.73663e-19)
(15.4873 4.33235 4.85603e-20)
(15.4019 4.56035 2.72342e-19)
(15.3093 4.76723 9.46576e-20)
(15.2148 4.95056 1.31621e-19)
(15.1259 5.0974 -1.94987e-19)
(15.4323 2.44508 -2.39226e-18)
(15.4391 2.45108 0)
(15.4473 2.45906 3.4438e-19)
(15.4581 2.46927 2.7896e-18)
(15.4717 2.48285 2.70392e-19)
(15.4888 2.50138 6.7737e-18)
(15.5103 2.52702 2.92466e-19)
(15.5367 2.56245 -4.74932e-18)
(15.5681 2.61101 -3.50755e-18)
(15.6041 2.6765 2.41635e-18)
(15.6435 2.76314 -3.94677e-18)
(15.6843 2.87508 -2.99702e-18)
(15.7228 3.01573 6.80385e-19)
(15.7545 3.18673 -4.33922e-18)
(15.7743 3.38719 -1.72899e-18)
(15.7775 3.61302 1.23605e-18)
(15.7605 3.85687 0)
(15.7222 4.109 -4.61272e-19)
(15.6644 4.35838 0)
(15.591 4.59494 1.093e-19)
(15.5082 4.80935 1.67418e-19)
(15.4213 4.99965 -1.55937e-19)
(15.3385 5.15045 -2.90081e-20)
(15.4333 2.44415 2.15735e-18)
(15.4402 2.44925 0)
(15.4493 2.45633 0)
(15.4614 2.46541 4.41903e-18)
(15.4766 2.47751 -3.30683e-18)
(15.4962 2.49416 -3.90593e-18)
(15.5213 2.51755 -6.14787e-18)
(15.5525 2.55046 5.24079e-18)
(15.5903 2.59635 0)
(15.6345 2.65922 3.0249e-18)
(15.6844 2.74354 3.54711e-18)
(15.7378 2.85389 1.5065e-18)
(15.7914 2.99407 0)
(15.8401 3.16616 2.31485e-18)
(15.8784 3.3695 1.45613e-18)
(15.9006 3.60004 -9.02105e-19)
(15.9024 3.85023 -2.40306e-19)
(15.882 4.1099 1.66928e-18)
(15.8405 4.3675 0)
(15.7812 4.61252 -7.43892e-19)
(15.7105 4.83486 2.3406e-19)
(15.6333 5.03302 8.04472e-19)
(15.5589 5.18894 -1.62769e-19)
(15.4342 2.44312 -2.38287e-19)
(15.4409 2.4475 0)
(15.4508 2.45371 0)
(15.4637 2.46165 -4.39168e-18)
(15.4802 2.47219 3.83164e-18)
(15.5018 2.48677 -5.1778e-19)
(15.5298 2.50763 3.61869e-18)
(15.5651 2.53756 3.78114e-19)
(15.6085 2.58016 -4.95896e-19)
(15.6601 2.63955 -3.44279e-18)
(15.7195 2.72045 -4.06989e-19)
(15.7849 2.82777 2.90636e-18)
(15.8528 2.96577 0)
(15.9182 3.13699 -2.87433e-18)
(15.9748 3.34115 2.76382e-19)
(16.0164 3.57437 -3.55007e-19)
(16.038 3.82905 1.12724e-18)
(16.0369 4.09483 -9.72404e-19)
(16.0135 4.35969 -1.27316e-18)
(15.9706 4.6128 -3.11358e-19)
(15.9144 4.8432 3.81553e-20)
(15.8492 5.04985 -4.69916e-19)
(15.785 5.21175 -3.00246e-19)
(15.435 2.44209 0)
(15.4412 2.44587 -2.33074e-19)
(15.4518 2.45122 2.80001e-18)
(15.4654 2.458 -8.44372e-20)
(15.4829 2.46691 -3.91054e-18)
(15.506 2.47928 6.65178e-19)
(15.5363 2.49734 -1.19475e-19)
(15.575 2.52389 -3.02857e-18)
(15.6231 2.5626 0)
(15.681 2.61765 -4.04607e-18)
(15.7489 2.69393 3.46126e-19)
(15.8253 2.79668 1.44922e-19)
(15.907 2.93063 0)
(15.9888 3.09886 2.82361e-18)
(16.0641 3.30156 -2.33044e-18)
(16.1259 3.53524 0)
(16.1685 3.7924 -1.11232e-18)
(16.1884 4.06269 0)
(16.1852 4.33376 1.03979e-18)
(16.1611 4.59458 0)
(16.1218 4.83315 -4.7764e-19)
(16.071 5.04912 2.89106e-19)
(16.019 5.21795 3.91046e-19)
(15.4357 2.44091 0)
(15.4414 2.44439 0)
(15.4524 2.44912 2.73578e-20)
(15.4661 2.4551 -1.78711e-19)
(15.4839 2.46281 4.41788e-18)
(15.5078 2.4734 3.79612e-18)
(15.5396 2.48911 0)
(15.5807 2.51273 2.83715e-18)
(15.6323 2.54805 0)
(15.695 2.59931 8.14543e-18)
(15.7691 2.67153 3.13048e-18)
(15.8534 2.77015 -2.41421e-18)
(15.9452 2.90019 -2.43983e-19)
(16.0392 3.06515 0)
(16.1287 3.26563 2.47064e-18)
(16.2067 3.49846 1.95387e-18)
(16.2668 3.75632 -1.82303e-19)
(16.3049 4.02892 1.3699e-18)
(16.32 4.30367 1.2309e-18)
(16.3135 4.56955 0)
(16.2907 4.81356 3.01528e-19)
(16.2544 5.03642 2.27105e-20)
(16.2147 5.21086 -2.28219e-19)
(15.4365 2.4397 -2.77366e-20)
(15.4415 2.44314 2.88469e-18)
(15.453 2.44736 -2.6145e-18)
(15.4669 2.45269 0)
(15.4849 2.45941 8.09019e-20)
(15.5094 2.46858 8.74867e-20)
(15.5424 2.48245 -3.60056e-18)
(15.5852 2.50378 0)
(15.6394 2.53641 0)
(15.7057 2.58461 -4.05679e-18)
(15.7846 2.65344 -3.32452e-18)
(15.8753 2.74849 -9.74203e-20)
(15.9753 2.87502 2.52397e-18)
(16.0794 3.03684 -8.06372e-20)
(16.181 3.23484 -3.39841e-19)
(16.2726 3.46611 3.47733e-19)
(16.3476 3.72344 -1.31807e-18)
(16.4015 3.99668 -1.26061e-18)
(16.4327 4.2731 -1.3956e-18)
(16.4421 4.54187 -1.0171e-18)
(16.4345 4.78916 3.30688e-19)
(16.4115 5.01666 -1.46688e-18)
(16.3842 5.1949 2.63745e-19)
(15.4372 2.43848 3.62872e-18)
(15.4415 2.44206 -3.26572e-18)
(15.4536 2.44578 7.85608e-20)
(15.4675 2.45055 2.4833e-18)
(15.4858 2.45634 -1.19974e-19)
(15.5109 2.46415 -3.86208e-18)
(15.5449 2.47626 6.81259e-18)
(15.5894 2.49541 1.92659e-19)
(15.646 2.52547 -1.42857e-19)
(15.7155 2.57068 -4.2263e-18)
(15.7989 2.6361 1.24181e-19)
(15.8957 2.72741 -3.03075e-18)
(16.0035 2.85006 -2.2473e-18)
(16.1174 3.00814 0)
(16.2308 3.20281 2.78283e-18)
(16.3361 3.43144 -4.12561e-18)
(16.4265 3.68694 -2.92543e-19)
(16.497 3.95939 1.2686e-18)
(16.5456 4.23596 -1.46946e-20)
(16.5725 4.50617 1.27984e-18)
(16.582 4.75541 0)
(16.5747 4.98637 4.42306e-19)
(16.5618 5.16731 0)
(15.4377 2.43728 -5.83205e-18)
(15.4415 2.44112 -3.12514e-18)
(15.4541 2.44436 1.29214e-19)
(15.4679 2.44863 -4.84921e-18)
(15.4865 2.45354 2.25307e-18)
(15.5121 2.46006 -1.08984e-19)
(15.547 2.47047 -3.46525e-18)
(15.5929 2.4875 5.52273e-20)
(15.6517 2.51505 -1.65332e-19)
(15.7243 2.5573 4.35759e-18)
(15.8119 2.61924 0)
(15.9144 2.70661 2.77129e-18)
(16.0296 2.82501 2.19663e-19)
(16.1531 2.97875 -1.09064e-19)
(16.2782 3.16925 -2.88828e-18)
(16.3973 3.39413 5.17246e-20)
(16.5034 3.64649 1.19277e-18)
(16.5914 3.91664 -2.08889e-18)
(16.6587 4.19174 0)
(16.7046 4.46175 -8.86606e-19)
(16.7332 4.71131 1.17129e-18)
(16.7436 4.94426 0)
(16.7472 5.12664 -6.66259e-19)
(15.4382 2.43614 2.05705e-18)
(15.4415 2.44031 3.70108e-20)
(15.4545 2.44308 1.2801e-19)
(15.4683 2.44691 2.32134e-18)
(15.487 2.45098 -4.39645e-18)
(15.513 2.45625 1.75869e-20)
(15.5487 2.46501 4.90735e-20)
(15.596 2.47997 3.12475e-18)
(15.6567 2.50502 -7.34819e-20)
(15.7322 2.54429 0)
(15.8236 2.60267 3.58331e-18)
(15.9314 2.6859 8.53302e-20)
(16.0538 2.79965 8.68684e-20)
(16.1866 2.94845 2.44736e-20)
(16.3233 3.13395 -2.84465e-19)
(16.4565 3.354 2.27307e-18)
(16.5789 3.60185 -1.33932e-18)
(16.6852 3.86813 -1.97122e-19)
(16.7723 4.13998 -4.47086e-19)
(16.8388 4.40791 1.2107e-18)
(16.8882 4.65584 -8.31292e-19)
(16.9181 4.88894 1.6922e-18)
(16.9399 5.07122 -1.09167e-18)
(15.4385 2.43508 2.20721e-18)
(15.4415 2.43962 3.00013e-18)
(15.4548 2.44192 1.2504e-20)
(15.4685 2.44535 2.40146e-18)
(15.4874 2.44863 4.41434e-18)
(15.5137 2.45268 -1.75838e-20)
(15.55 2.45983 -4.94055e-20)
(15.5986 2.47275 2.6191e-20)
(15.6611 2.49531 -2.63769e-18)
(15.7391 2.53158 2.26126e-18)
(15.8341 2.58627 -3.7764e-18)
(15.947 2.66511 -3.01211e-18)
(16.0764 2.7738 2.54979e-18)
(16.2183 2.91704 0)
(16.3667 3.09665 1.62441e-18)
(16.5141 3.31072 0)
(16.6533 3.55263 1.78866e-18)
(16.7786 3.81333 1.12315e-18)
(16.8866 4.07993 -2.2192e-20)
(16.975 4.34362 -1.35203e-18)
(17.0466 4.5876 -2.88639e-20)
(17.0977 4.81857 7.04034e-21)
(17.1391 4.99882 -4.37745e-19)
(15.4388 2.43411 1.38196e-20)
(15.4415 2.43902 2.81913e-20)
(15.4551 2.44087 -1.1999e-20)
(15.4687 2.44395 -2.40481e-18)
(15.4876 2.44646 -2.19182e-18)
(15.5142 2.44935 0)
(15.5511 2.45491 3.32655e-20)
(15.6007 2.46581 -3.1496e-18)
(15.6648 2.48589 -2.54937e-20)
(15.7452 2.51909 -2.26631e-18)
(15.8436 2.56997 1.94627e-18)
(15.9614 2.64416 4.69115e-18)
(16.0974 2.74734 -2.465e-18)
(16.2484 2.88434 2.00288e-18)
(16.4084 3.05711 1.65096e-19)
(16.5703 3.26394 2.54846e-20)
(16.7267 3.49832 -9.63093e-20)
(16.8718 3.75151 -3.54448e-19)
(17.0015 4.01059 2.41703e-19)
(17.1127 4.26753 -4.12374e-19)
(17.2076 4.50483 -3.00865e-20)
(17.281 4.73085 3.4642e-19)
(17.3433 4.90666 0)
(15.439 2.43323 -1.4755e-20)
(15.4415 2.43851 0)
(15.4553 2.43992 0)
(15.4688 2.44267 -2.36841e-18)
(15.4878 2.44446 -2.2223e-18)
(15.5145 2.44621 2.0107e-18)
(15.5519 2.45022 2.49959e-20)
(15.6025 2.4591 -2.89008e-20)
(15.6681 2.47668 2.70994e-18)
(15.7506 2.50676 -4.1412e-20)
(15.8522 2.55368 8.109e-20)
(15.9745 2.62292 -1.58763e-18)
(16.1171 2.7201 0)
(16.277 2.85014 -2.1308e-18)
(16.4486 3.01502 -3.42554e-18)
(16.6251 3.21325 -1.4382e-18)
(16.799 3.43834 -9.02758e-19)
(16.9642 3.68189 0)
(17.1162 3.93088 0)
(17.2508 4.17819 7.4358e-19)
(17.3697 4.40563 5.24943e-19)
(17.466 4.6234 -1.06939e-18)
(17.5498 4.79188 0)
(15.4391 2.43245 -2.47807e-18)
(15.4414 2.43808 1.37257e-20)
(15.4555 2.43905 -5.50762e-21)
(15.4688 2.44152 2.35423e-18)
(15.4879 2.4426 4.40891e-18)
(15.5147 2.44324 -3.99385e-18)
(15.5525 2.44571 -2.51353e-20)
(15.6039 2.45259 -2.91761e-20)
(15.6708 2.46764 3.83397e-20)
(15.7554 2.49452 0)
(15.8599 2.53729 -1.92697e-18)
(15.9866 2.60126 1.64328e-18)
(16.1355 2.69192 0)
(16.3041 2.81417 0)
(16.4873 2.97005 1.62067e-18)
(16.6784 3.15816 1.19561e-19)
(16.8698 3.37201 1.02747e-18)
(17.0554 3.60354 7.93481e-19)
(17.2297 3.83958 -1.16107e-18)
(17.388 4.07403 -4.28782e-19)
(17.5308 4.28804 1.71477e-18)
(17.65 4.4938 -1.60323e-18)
(17.7552 4.65161 1.06849e-18)
(15.4392 2.43177 1.26344e-18)
(15.4414 2.43771 1.24883e-18)
(15.4556 2.43826 1.26878e-20)
(15.4688 2.44046 -1.67662e-20)
(15.4878 2.44086 -2.2177e-18)
(15.5147 2.44042 2.02442e-18)
(15.5529 2.44137 -1.70372e-20)
(15.605 2.44623 -6.99973e-21)
(15.673 2.45872 3.86706e-20)
(15.7595 2.48231 2.12451e-20)
(15.8667 2.52074 -2.78264e-20)
(15.9976 2.5791 -1.64638e-18)
(16.1525 2.66264 1.44097e-18)
(16.3296 2.77624 -6.47336e-20)
(16.5242 2.92186 0)
(16.7298 3.0982 -1.36015e-19)
(16.9387 3.29869 1.27259e-19)
(17.1444 3.51558 -8.00183e-19)
(17.3408 3.73553 1.46595e-18)
(17.522 3.95361 8.71601e-19)
(17.6879 4.15033 -5.94267e-19)
(17.8291 4.34003 -8.9657e-19)
(17.9546 4.4836 1.16839e-18)
(15.4393 2.43117 -3.98155e-21)
(15.4414 2.4374 -1.2615e-18)
(15.4557 2.43754 0)
(15.4688 2.43949 0)
(15.4877 2.43924 0)
(15.5146 2.43774 0)
(15.553 2.43718 1.71487e-20)
(15.6057 2.44001 -7.75428e-21)
(15.6748 2.44988 -1.94772e-20)
(15.7629 2.47008 2.14526e-20)
(15.8726 2.50396 -2.81066e-20)
(16.0074 2.55631 0)
(16.168 2.63212 -2.80655e-18)
(16.3534 2.73613 8.20631e-20)
(16.559 2.87015 -1.72199e-19)
(16.7788 3.03293 1.63247e-18)
(17.0048 3.21774 -1.31671e-19)
(17.2299 3.4172 2.2921e-19)
(17.4474 3.61777 -2.76001e-19)
(17.6503 3.81581 4.66458e-19)
(17.8376 3.99123 -6.68921e-19)
(17.9987 4.16078 0)
(18.1426 4.2861 6.69059e-19)
(15.4393 2.43066 -2.50973e-18)
(15.4414 2.43712 -5.90074e-19)
(15.4558 2.43688 -8.97352e-21)
(15.4687 2.43861 1.19471e-18)
(15.4875 2.43773 1.10307e-18)
(15.5143 2.43518 9.66839e-21)
(15.5529 2.4331 -1.85573e-18)
(15.6061 2.43389 1.64179e-18)
(15.6761 2.44109 1.3696e-18)
(15.7657 2.45778 0)
(15.8777 2.48689 3.66713e-20)
(16.016 2.53284 -1.75114e-18)
(16.182 2.60025 1.466e-18)
(16.3752 2.69363 1.11632e-18)
(16.5915 2.81462 9.59078e-19)
(16.8248 2.96191 0)
(17.0671 3.12859 0)
(17.3105 3.30767 -8.94701e-19)
(17.5474 3.48542 -9.96572e-19)
(17.7697 3.65993 4.92424e-19)
(17.9756 3.81073 3.59197e-19)
(18.1532 3.95653 4.85072e-19)
(18.312 4.06159 -6.78216e-19)
(15.4393 2.43023 1.24905e-18)
(15.4414 2.43689 5.91976e-19)
(15.4558 2.43627 -6.43177e-21)
(15.4686 2.43778 6.3143e-21)
(15.4872 2.43628 -1.10322e-18)
(15.5139 2.43269 -1.00552e-18)
(15.5526 2.4291 9.05968e-19)
(15.6063 2.42782 -1.6269e-18)
(15.677 2.4323 -1.36379e-18)
(15.7679 2.44535 -3.35493e-20)
(15.8818 2.46945 0)
(16.0234 2.50855 1.70475e-18)
(16.1943 2.56684 1.44318e-18)
(16.3948 2.64853 -1.18568e-18)
(16.621 2.75495 -8.25147e-19)
(16.867 2.88473 -3.91804e-19)
(17.1243 3.03082 -3.24995e-19)
(17.3842 3.18676 1.80471e-18)
(17.638 3.33882 0)
(17.8765 3.48659 0)
(18.0972 3.61007 3.6836e-19)
(18.2873 3.72856 -9.34319e-19)
(18.457 3.81122 -6.74865e-19)
(15.4394 2.42988 -1.20003e-18)
(15.4414 2.43669 0)
(15.4558 2.43573 0)
(15.4685 2.43704 -2.38148e-18)
(15.4869 2.43497 1.08769e-18)
(15.5133 2.43039 1.029e-18)
(15.552 2.42527 -1.56576e-21)
(15.606 2.42186 8.04013e-19)
(15.6774 2.42352 3.25411e-20)
(15.7694 2.4328 -1.20884e-18)
(15.885 2.45165 3.70762e-20)
(16.0295 2.48348 -4.85371e-20)
(16.2048 2.53196 -1.4447e-18)
(16.4118 2.60087 1.21112e-18)
(16.6471 2.69118 9.1806e-19)
(16.9045 2.8015 -8.03268e-19)
(17.1749 2.92461 7.38064e-19)
(17.4488 3.0546 -9.02743e-19)
(17.7165 3.17813 0)
(17.9673 3.29621 0)
(18.1982 3.39039 -3.40019e-19)
(18.3961 3.47933 2.40083e-19)
(18.5719 3.53832 -6.68531e-19)
(15.4392 2.42956 2.98498e-20)
(15.4415 2.43647 -5.95062e-19)
(15.4559 2.43512 0)
(15.4683 2.43618 5.98258e-19)
(15.4865 2.43344 -2.19235e-18)
(15.513 2.42781 9.71008e-21)
(15.5517 2.42117 -1.42356e-20)
(15.6059 2.41576 -8.3334e-19)
(15.6776 2.41462 1.97422e-20)
(15.7704 2.42002 1.21307e-18)
(15.8872 2.4333 -2.85968e-20)
(16.0341 2.45729 -8.30642e-19)
(16.2133 2.49511 -9.387e-20)
(16.4261 2.55007 -1.13843e-18)
(16.6692 2.62273 -1.05161e-18)
(16.9364 2.71164 8.14626e-20)
(17.2177 2.80956 0)
(17.5026 2.91132 -1.242e-19)
(17.7801 3.00434 1.60022e-19)
(18.0388 3.09095 0)
(18.2748 3.15506 3.43786e-19)
(18.4754 3.21398 -2.35178e-19)
(18.6524 3.24919 0)
(15.4392 2.42946 1.1715e-18)
(15.4412 2.4365 5.93383e-19)
(15.4557 2.4351 0)
(15.4681 2.43613 5.88188e-19)
(15.486 2.43327 2.18307e-18)
(15.5121 2.42697 1.01578e-18)
(15.5507 2.41905 1.84767e-18)
(15.6051 2.41156 0)
(15.6773 2.40782 1.39182e-18)
(15.771 2.40985 -1.18608e-18)
(15.889 2.4183 9.98004e-19)
(16.0376 2.43522 8.60023e-19)
(16.2196 2.46272 -1.30637e-20)
(16.4368 2.50337 1.70339e-20)
(16.6861 2.55709 -9.83172e-19)
(16.9609 2.62222 7.77184e-19)
(17.2506 2.6917 0)
(17.5431 2.76123 4.57127e-19)
(17.8265 2.81983 0)
(18.0883 2.87123 0)
(18.3241 2.90269 -3.36355e-19)
(18.5227 2.93013 -7.09915e-19)
(18.6961 2.94113 6.09368e-19)
(15.4392 2.42933 0)
(15.4413 2.4365 -2.7429e-23)
(15.4557 2.43501 8.63211e-23)
(15.4681 2.436 -5.8467e-19)
(15.4858 2.43296 -5.4459e-19)
(15.5118 2.4262 -1.01534e-18)
(15.5503 2.41742 -9.25301e-19)
(15.6047 2.40851 -9.36402e-22)
(15.6771 2.40271 -6.94619e-19)
(15.7711 2.40173 1.11412e-21)
(15.8897 2.40562 -6.72028e-22)
(16.0395 2.4156 0)
(16.2236 2.43279 1.30596e-20)
(16.4442 2.45882 -1.7022e-20)
(16.698 2.49286 1.437e-18)
(16.9782 2.533 4.49203e-20)
(17.273 2.57254 0)
(17.5691 2.60829 1.23709e-19)
(17.8533 2.63145 -1.58089e-19)
(18.1129 2.64729 0)
(18.3431 2.64672 0)
(18.5349 2.64424 4.55574e-19)
(18.7011 2.6324 -3.13799e-19)
(15.4392 2.42921 1.11666e-18)
(15.4414 2.4365 6.23444e-19)
(15.4558 2.43491 0)
(15.468 2.43585 5.85121e-19)
(15.4856 2.43261 -5.47782e-19)
(15.5115 2.42539 -1.02723e-18)
(15.55 2.41575 9.3547e-19)
(15.6045 2.40547 -8.27365e-19)
(15.6771 2.39761 -6.97035e-19)
(15.7715 2.39361 1.77909e-18)
(15.8906 2.39287 -9.98315e-19)
(16.0414 2.39578 -8.50513e-19)
(16.227 2.40245 -7.24157e-19)
(16.4498 2.41357 0)
(16.7065 2.42761 -4.90489e-19)
(16.9893 2.44256 7.80319e-19)
(17.2855 2.4524 4.13043e-20)
(17.5804 2.45534 -5.06642e-19)
(17.8604 2.44508 0)
(18.1126 2.42837 0)
(18.3328 2.39947 0)
(18.5146 2.37135 -6.77541e-19)
(18.6707 2.34005 5.99391e-19)
(15.4392 2.4291 -1.11782e-18)
(15.4415 2.4365 9.45707e-21)
(15.4558 2.4348 0)
(15.468 2.43571 -5.84328e-19)
(15.4855 2.43227 -5.88948e-23)
(15.5113 2.42458 1.5453e-18)
(15.5497 2.41409 -1.87741e-18)
(15.6043 2.40244 2.49194e-18)
(15.6771 2.39254 -7.99711e-22)
(15.7719 2.38551 -5.91476e-19)
(15.8913 2.38011 -5.00962e-19)
(16.0428 2.37587 8.52877e-19)
(16.2293 2.3719 7.15873e-19)
(16.4532 2.36795 -5.99409e-19)
(16.7108 2.36187 8.65658e-21)
(16.9935 2.35174 -7.8996e-19)
(17.2876 2.33254 0)
(17.5774 2.30414 0)
(17.8489 2.26294 3.24247e-19)
(18.0901 2.21706 0)
(18.2972 2.16357 0)
(18.4668 2.11397 1.08857e-19)
(18.6113 2.06643 2.86516e-19)
(15.4392 2.42899 0)
(15.4415 2.4365 -6.34077e-19)
(15.4558 2.4347 1.71129e-23)
(15.468 2.43558 -4.13176e-22)
(15.4854 2.43194 -4.21427e-23)
(15.511 2.4238 -1.03799e-18)
(15.5493 2.41246 9.41868e-19)
(15.604 2.39943 -1.66468e-18)
(15.6769 2.38749 -7.00597e-19)
(15.772 2.37743 0)
(15.8916 2.36735 4.98555e-19)
(16.0433 2.35591 1.71486e-21)
(16.2299 2.34126 3.63184e-22)
(16.4536 2.32218 5.96794e-19)
(16.7102 2.29606 0)
(16.9903 2.26125 3.91161e-19)
(17.2791 2.21406 -8.63877e-21)
(17.5604 2.15623 0)
(17.8203 2.08687 -3.24185e-19)
(18.0476 2.0153 0)
(18.2398 1.94089 0)
(18.3961 1.87366 0)
(18.528 1.81289 -4.90319e-21)
(15.4391 2.4289 0)
(15.4415 2.43651 3.24309e-19)
(15.4558 2.4346 -3.13127e-24)
(15.4679 2.43545 5.85687e-19)
(15.4852 2.43162 5.59801e-19)
(15.5107 2.42303 1.04429e-18)
(15.5489 2.41085 0)
(15.6036 2.39646 -8.36198e-19)
(15.6766 2.38246 1.40058e-18)
(15.7718 2.36938 -1.8613e-23)
(15.8912 2.35461 4.95329e-19)
(16.0427 2.33597 -4.20894e-19)
(16.2286 2.31063 0)
(16.451 2.2765 0)
(16.7049 2.23061 4.81102e-19)
(16.9799 2.1718 -3.84288e-19)
(17.2606 2.098 0)
(17.5304 2.01294 -4.29026e-19)
(17.7761 1.91835 -3.12891e-19)
(17.9877 1.82452 0)
(18.1639 1.73263 4.92713e-21)
(18.3062 1.65118 3.01243e-22)
(18.4253 1.5798 -1.48003e-19)
(15.4391 2.42882 3.9169e-24)
(15.4416 2.43651 -6.51297e-19)
(15.4558 2.43451 -9.17639e-24)
(15.4679 2.43533 0)
(15.485 2.43132 2.76045e-21)
(15.5104 2.42229 -1.04952e-18)
(15.5485 2.40927 -2.05577e-22)
(15.6032 2.39352 8.3633e-19)
(15.6761 2.37748 -6.99715e-19)
(15.7713 2.36136 5.88753e-19)
(15.8904 2.34192 -2.99502e-21)
(16.0413 2.31611 8.39353e-19)
(16.2258 2.28016 -7.06074e-19)
(16.4455 2.23115 2.08516e-21)
(16.6949 2.16594 -9.60332e-19)
(16.9626 2.08407 3.85675e-19)
(17.2326 1.98528 -1.81632e-20)
(17.4886 1.87539 4.44068e-19)
(17.718 1.75853 3.11283e-19)
(17.9125 1.64571 0)
(18.0722 1.53945 1.45107e-19)
(18.2006 1.44668 0)
(18.307 1.36687 -6.19195e-20)
(15.4391 2.42874 0)
(15.4416 2.43652 3.26976e-19)
(15.4558 2.43442 3.59943e-19)
(15.4678 2.43522 3.31259e-23)
(15.4848 2.43103 -1.12898e-18)
(15.5101 2.42158 5.26219e-19)
(15.548 2.40773 0)
(15.6026 2.39062 0)
(15.6755 2.37253 -3.96518e-22)
(15.7705 2.3534 -5.88334e-19)
(15.8891 2.32931 -3.52449e-21)
(16.0389 2.29638 -4.17731e-19)
(16.2213 2.24996 7.0315e-19)
(16.4372 2.18637 0)
(16.6804 2.10247 4.75213e-19)
(16.9386 1.9987 -3.74007e-19)
(17.1958 1.87675 2.59121e-19)
(17.4359 1.74452 2.45974e-20)
(17.6477 1.60829 0)
(17.8243 1.47949 0)
(17.9675 1.36155 -7.24269e-20)
(18.0822 1.25985 -1.87914e-19)
(18.1763 1.17339 1.29938e-19)
(15.439 2.42867 0)
(15.4417 2.43653 -1.39122e-23)
(15.4558 2.43434 -3.60195e-19)
(15.4678 2.43512 2.97347e-19)
(15.4846 2.43076 5.65875e-19)
(15.5097 2.42089 1.1319e-22)
(15.5475 2.40621 4.76972e-19)
(15.602 2.38776 4.17235e-19)
(15.6748 2.36763 -6.929e-19)
(15.7696 2.34551 0)
(15.8874 2.3168 -4.02526e-21)
(16.0357 2.27685 -4.10175e-19)
(16.2152 2.22015 0)
(16.4262 2.14239 -1.02315e-20)
(16.6616 2.04059 4.7232e-19)
(16.9085 1.91624 0)
(17.1509 1.77311 -4.5108e-20)
(17.3735 1.62106 -5.6838e-21)
(17.5667 1.46821 3.51803e-19)
(17.7252 1.32615 0)
(17.8521 1.19882 0)
(17.9535 1.09015 9.44225e-20)
(18.0356 0.998552 -3.05923e-19)
(15.439 2.42861 -7.92428e-24)
(15.4417 2.43654 1.04583e-23)
(15.4558 2.43425 0)
(15.4677 2.43502 2.99305e-19)
(15.4845 2.43051 -2.93037e-22)
(15.5094 2.42022 2.26768e-22)
(15.547 2.40474 -4.76914e-19)
(15.6013 2.38493 -4.17755e-19)
(15.6739 2.36278 6.931e-19)
(15.7684 2.33768 -5.76974e-19)
(15.8852 2.30441 -4.86383e-19)
(16.0317 2.25756 4.13948e-19)
(16.2075 2.19085 3.34036e-19)
(16.4125 2.09942 2.69803e-19)
(16.6386 1.98066 -4.62299e-19)
(16.8724 1.83722 2.05306e-20)
(17.0985 1.67496 -3.0731e-19)
(17.3025 1.50556 -1.45019e-19)
(17.4765 1.33866 -1.48111e-19)
(17.6168 1.18578 9.98114e-20)
(17.7279 1.051 -1.28588e-19)
(17.8165 0.937001 0)
(17.887 0.841495 1.15982e-19)
(15.439 2.42856 0)
(15.4418 2.43655 3.2871e-19)
(15.4558 2.43417 3.59788e-19)
(15.4677 2.43493 -2.98143e-19)
(15.4843 2.43027 2.84689e-19)
(15.509 2.41958 0)
(15.5464 2.40329 5.53077e-22)
(15.6006 2.38215 -7.26805e-22)
(15.6729 2.35798 3.42938e-19)
(15.7669 2.32994 8.65471e-19)
(15.8825 2.29217 -4.73242e-19)
(16.0267 2.23858 -2.84429e-21)
(16.1982 2.16218 -5.65599e-21)
(16.3962 2.05769 -2.80005e-19)
(16.6116 1.92301 0)
(16.831 1.76207 3.38422e-19)
(17.0394 1.58279 -2.53339e-19)
(17.2239 1.39844 1.92228e-19)
(17.3784 1.21983 6.29663e-20)
(17.5008 1.05827 5.52883e-21)
(17.5966 0.917834 -1.2287e-19)
(17.6727 0.799871 8.14163e-20)
(17.7322 0.701443 1.13205e-19)
(15.4389 2.42851 2.77216e-19)
(15.4418 2.43656 -1.23402e-21)
(15.4558 2.4341 -3.60043e-19)
(15.4676 2.43484 -2.9899e-19)
(15.4841 2.43004 -5.69338e-19)
(15.5086 2.41897 -5.27669e-19)
(15.5458 2.40188 -5.51375e-22)
(15.5998 2.37941 7.24523e-22)
(15.6718 2.35323 -3.43034e-19)
(15.7653 2.32229 -2.8713e-19)
(15.8794 2.28011 9.45939e-19)
(16.0209 2.21995 -3.94807e-19)
(16.1874 2.13424 -3.33556e-19)
(16.3773 2.01738 2.67786e-19)
(16.581 1.86796 -1.49647e-20)
(16.7845 1.69118 -2.97168e-19)
(16.9743 1.49699 2.58096e-19)
(17.1388 1.3 -2.66651e-19)
(17.2737 1.11179 -6.93544e-20)
(17.3785 0.943455 0)
(17.4595 0.798898 1.21929e-19)
(17.5236 0.678077 -1.61655e-19)
(17.5728 0.577464 2.14839e-19)
(15.4389 2.42847 -2.77365e-19)
(15.4418 2.43657 -4.91049e-19)
(15.4558 2.43402 -3.60026e-19)
(15.4676 2.43476 2.99032e-19)
(15.4839 2.42982 2.84586e-19)
(15.5082 2.41837 5.27798e-19)
(15.5452 2.4005 4.73822e-19)
(15.5989 2.37672 0)
(15.6706 2.34854 3.39447e-19)
(15.7633 2.31473 -2.82811e-19)
(15.8758 2.26823 -4.70543e-19)
(16.0143 2.20174 3.94991e-19)
(16.1752 2.10714 0)
(16.3562 1.97867 -2.49422e-19)
(16.5469 1.81576 1.81854e-19)
(16.7336 1.62488 -1.57408e-19)
(16.904 1.41787 6.35745e-20)
(17.0481 1.21043 9.44841e-20)
(17.1635 1.01457 -2.43361e-19)
(17.251 0.841099 1.62703e-19)
(17.3179 0.693686 0)
(17.3705 0.570815 -3.09893e-19)
(17.4098 0.468672 4.40399e-19)
(15.4389 2.42843 0)
(15.4419 2.43658 1.63243e-19)
(15.4558 2.43394 3.6014e-19)
(15.4675 2.43468 -2.99216e-19)
(15.4837 2.42962 -5.05694e-23)
(15.5078 2.4178 2.25723e-22)
(15.5445 2.39916 -2.37257e-19)
(15.598 2.37407 0)
(15.6692 2.34391 -3.39546e-19)
(15.7612 2.30729 2.17832e-21)
(15.8718 2.25658 0)
(16.0069 2.18399 -1.91157e-19)
(16.1616 2.08098 0)
(16.3329 1.94174 1.80156e-20)
(16.5097 1.76666 -4.00933e-19)
(16.6787 1.56344 1.21682e-19)
(16.8291 1.34565 6.05096e-20)
(16.9528 1.12984 -2.37666e-19)
(17.0487 0.92811 1.18419e-19)
(17.1195 0.750964 1.61544e-19)
(17.1729 0.601691 -2.59933e-19)
(17.2144 0.477483 2.12859e-19)
(17.2441 0.374461 -7.83139e-19)
(15.4389 2.4284 -2.75298e-19)
(15.4419 2.43659 1.61788e-19)
(15.4558 2.43387 -1.80007e-19)
(15.4675 2.4346 -1.58169e-22)
(15.4835 2.42943 2.91734e-22)
(15.5074 2.41725 -5.36377e-22)
(15.5438 2.39785 -2.3653e-19)
(15.5969 2.37146 1.63745e-21)
(15.6677 2.33935 -1.20485e-21)
(15.7588 2.29996 2.17875e-21)
(15.8674 2.24517 -2.27007e-19)
(15.9988 2.16674 1.84489e-19)
(16.1466 2.05585 8.84224e-21)
(16.3075 1.90673 -1.73924e-20)
(16.4698 1.72086 2.21944e-19)
(16.6204 1.50708 0)
(16.7504 1.28049 1.05344e-19)
(16.8536 1.05826 1.59918e-19)
(16.9305 0.85233 -1.11483e-19)
(16.985 0.67278 2.95882e-19)
(17.0252 0.522503 -1.43929e-19)
(17.056 0.397655 3.16371e-20)
(17.0765 0.29433 3.9245e-19)
(15.4388 2.42837 5.48845e-19)
(15.4419 2.43659 -1.61888e-19)
(15.4558 2.43379 -2.54713e-23)
(15.4674 2.43453 0)
(15.4833 2.42925 0)
(15.5069 2.41673 -2.62846e-19)
(15.543 2.39657 -2.36138e-19)
(15.5959 2.3689 0)
(15.6662 2.33485 -1.50985e-21)
(15.7563 2.29276 2.80719e-19)
(15.8626 2.23401 2.31174e-19)
(15.9899 2.15004 -5.29437e-21)
(16.1305 2.03182 -1.0657e-20)
(16.2804 1.87377 3.06306e-20)
(16.4274 1.67851 -2.18305e-20)
(16.5592 1.45596 0)
(16.6687 1.2225 -1.51202e-19)
(16.7515 0.995689 5.43486e-21)
(16.8096 0.787088 -2.99882e-19)
(16.8482 0.606288 1.35052e-19)
(16.8758 0.455848 1.87888e-19)
(16.8959 0.33102 -3.02748e-19)
(16.9077 0.227932 0)
(15.4388 2.42835 -5.44826e-19)
(15.442 2.43659 2.06222e-23)
(15.4558 2.43372 1.80262e-19)
(15.4674 2.43446 0)
(15.4831 2.42908 0)
(15.5065 2.41622 1.19571e-22)
(15.5423 2.39532 4.72135e-19)
(15.5948 2.36639 0)
(15.6645 2.33043 1.67078e-19)
(15.7535 2.28569 0)
(15.8574 2.22313 0)
(15.9804 2.13394 -6.46264e-21)
(16.1133 2.00896 8.42508e-21)
(16.2517 1.84295 9.79948e-20)
(16.3829 1.63975 2.09487e-20)
(16.4956 1.4102 -3.54728e-20)
(16.5844 1.17172 1.4607e-19)
(16.6471 0.942071 0)
(16.6868 0.732218 9.79569e-20)
(16.7102 0.551279 0)
(16.7254 0.401513 4.07206e-20)
(16.7352 0.277231 5.62347e-20)
(16.7387 0.174741 0)
(15.4388 2.42832 4.05896e-19)
(15.442 2.43659 -8.05723e-20)
(15.4558 2.43364 0)
(15.4673 2.43439 1.4894e-19)
(15.4828 2.42892 -1.41592e-19)
(15.506 2.41574 2.63189e-19)
(15.5415 2.39411 -2.36407e-19)
(15.5936 2.36392 -2.05723e-19)
(15.6627 2.32607 -1.65944e-19)
(15.7505 2.27877 -2.41229e-21)
(15.8519 2.21254 3.15511e-21)
(15.9703 2.11846 1.75954e-19)
(16.0951 1.98734 9.93717e-21)
(16.2215 1.81438 -1.42468e-19)
(16.3366 1.60466 2.00279e-20)
(16.4301 1.36986 0)
(16.4984 1.12815 0)
(16.5412 0.8973 0)
(16.5631 0.687534 0)
(16.5715 0.507528 -2.78803e-20)
(16.5748 0.359213 -1.80473e-19)
(16.5744 0.235693 1.7603e-19)
(16.5693 0.133757 0)
(15.4388 2.4283 -1.34566e-19)
(15.442 2.43659 1.61288e-19)
(15.4558 2.43356 0)
(15.4673 2.43433 -1.49071e-19)
(15.4826 2.42877 2.83748e-19)
(15.5056 2.41528 0)
(15.5407 2.39294 0)
(15.5923 2.36151 2.04884e-19)
(15.6608 2.3218 0)
(15.7474 2.27199 -1.32232e-19)
(15.846 2.20226 -1.10049e-19)
(15.9595 2.10364 -9.03208e-20)
(16.076 1.967 1.35236e-19)
(16.1901 1.78811 0)
(16.2889 1.57332 0)
(16.3631 1.33495 3.10477e-20)
(16.4111 1.09175 -4.05527e-20)
(16.4345 0.861228 0)
(16.4391 0.652846 -3.77423e-20)
(16.4331 0.474768 2.8048e-20)
(16.4246 0.328431 1.40462e-19)
(16.4139 0.205988 -1.82011e-19)
(16.4006 0.105387 0)
(15.4387 2.42827 1.548e-23)
(15.4421 2.43658 -1.61625e-19)
(15.4558 2.43348 -5.06489e-23)
(15.4672 2.43426 -7.45474e-20)
(15.4824 2.42863 -1.42155e-19)
(15.5051 2.41484 1.32118e-19)
(15.5398 2.3918 4.11167e-22)
(15.5911 2.35914 -1.03194e-19)
(15.6588 2.31761 1.67569e-19)
(15.744 2.26537 1.32751e-19)
(15.8399 2.1923 1.06999e-19)
(15.9483 2.08949 -8.58428e-20)
(16.0562 1.94799 -1.35402e-19)
(16.1577 1.7642 -1.3811e-20)
(16.2401 1.54574 1.80878e-20)
(16.2952 1.30546 2.8778e-20)
(16.3233 1.06244 -3.76235e-20)
(16.3277 0.833677 0)
(16.3155 0.627952 3.79505e-20)
(16.2954 0.452718 0)
(16.2749 0.308652 -1.66701e-20)
(16.2546 0.188458 0)
(16.234 0.090579 -5.95861e-21)
(15.4387 2.42825 6.57685e-20)
(15.4421 2.43657 8.08849e-20)
(15.4558 2.4334 9.07724e-20)
(15.4672 2.4342 6.18669e-23)
(15.4822 2.4285 -2.42287e-22)
(15.5046 2.41442 6.08173e-22)
(15.539 2.39069 -1.18684e-19)
(15.5897 2.35683 -5.56025e-22)
(15.6567 2.31349 -1.64977e-19)
(15.7405 2.2589 -2.30792e-21)
(15.8334 2.18268 1.06046e-19)
(15.9365 2.07605 0)
(16.0356 1.93032 -8.74441e-21)
(16.1246 1.74267 1.14182e-20)
(16.1904 1.52192 3.46779e-20)
(16.2269 1.28133 0)
(16.2355 1.04008 0)
(16.2213 0.81447 -2.27761e-20)
(16.1929 0.612586 0)
(16.1591 0.441125 8.51247e-20)
(16.127 0.300195 -9.65752e-20)
(16.0973 0.182614 8.10185e-21)
(16.0694 0.0876061 1.83664e-19)
(15.4387 2.42823 -1.31175e-19)
(15.4421 2.43656 -4.0703e-20)
(15.4558 2.43332 -1.36192e-19)
(15.4672 2.43413 7.50412e-20)
(15.482 2.42838 7.13134e-20)
(15.5041 2.41402 -1.99332e-19)
(15.5381 2.38962 1.18856e-19)
(15.5883 2.35457 1.01299e-19)
(15.6545 2.30946 2.61911e-21)
(15.7368 2.2526 -1.88632e-21)
(15.8266 2.17339 -1.03086e-19)
(15.9244 2.06332 -3.92692e-20)
(16.0145 1.91403 5.17285e-20)
(16.0908 1.72351 5.5609e-20)
(16.1404 1.50181 -3.47578e-20)
(16.1585 1.26245 0)
(16.1482 1.02452 0)
(16.1161 0.803379 -4.07239e-20)
(16.072 0.606424 5.64879e-20)
(16.0251 0.439972 0)