/*--------------------------------*- C++ -*----------------------------------*\
  =========                 |
  \\      /  F ield         | OpenFOAM: The Open Source CFD Toolbox
   \\    /   O peration     | Website:  https://openfoam.org
    \\  /    A nd           | Version:  7
     \\/     M anipulation  |
\*---------------------------------------------------------------------------*/
FoamFile
{
    version     2.0;
    format      ascii;
    class       volScalarField;
    location    "75";
    object      yPlus;
}
// * * * * * * * * * * * * * * * * * * * * * * * * * * * * * * * * * * * * * //

dimensions      [0 0 0 0 0 0 0];

internalField   uniform 0;

boundaryField
{
    inlet
    {
        type            calculated;
        value           uniform 0;
    }
    outlet
    {
        type            calculated;
        value           uniform 0;
    }
    suction_side
    {
        type            calculated;
        value           nonuniform List<scalar> 
56
(
7.92093
7.86678
8.28916
8.22884
8.80822
8.77681
9.84946
9.85016
11.531
11.521
14.3871
16.9183
25.6068
36.269
36.399
30.0782
19.4241
25.0544
41.1774
40.2633
42.159
43.7352
44.3674
44.1143
43.2267
42.0725
41.0436
40.1233
39.0494
37.9014
36.7741
35.7163
34.7439
33.8437
33.0247
32.2441
31.528
30.8405
30.116
29.3597
28.5062
27.5039
26.3764
25.1165
23.6607
22.065
20.4462
18.7297
16.7134
14.7933
11.9217
13.6105
11.6983
11.0773
11.9329
14.5869
)
;
    }
    pressure_side
    {
        type            calculated;
        value           nonuniform List<scalar> 
56
(
33.8
33.9542
33.8944
34.2406
34.42
34.7994
35.1207
35.4401
35.7637
36.0276
36.2479
36.4319
36.5921
36.7334
36.8606
36.9783
37.09
37.1965
37.2935
37.3836
37.4597
37.5033
37.4999
37.4063
37.2488
37.0757
36.9663
37.0245
37.3229
37.9151
38.7284
39.6393
40.4413
40.64
40.0601
38.9146
37.0196
34.1479
30.45
25.8549
20.6079
14.9843
9.02184
6.6684
5.30275
4.82394
5.01175
5.27238
5.778
6.0765
6.82983
6.93617
7.38988
7.42046
7.69869
7.68059
)
;
    }
    trailing_edge
    {
        type            calculated;
        value           nonuniform List<scalar> 2(116.876 86.081);
    }
    defaultFaces
    {
        type            empty;
    }
}


// ************************************************************************* //
