/*--------------------------------*- C++ -*----------------------------------*\
  =========                 |
  \\      /  F ield         | OpenFOAM: The Open Source CFD Toolbox
   \\    /   O peration     | Website:  https://openfoam.org
    \\  /    A nd           | Version:  7
     \\/     M anipulation  |
\*---------------------------------------------------------------------------*/
FoamFile
{
    version     2.0;
    format      ascii;
    class       volSymmTensorField;
    location    "167";
    object      devReff;
}
// * * * * * * * * * * * * * * * * * * * * * * * * * * * * * * * * * * * * * //

dimensions      [0 2 -2 0 0 0 0];

internalField   nonuniform List<symmTensor> 
36000
(
(0.000141075 -0.0217216 -0 -0.000105443 -0 -3.56318e-05)
(0.00017338 -0.0221129 -0 -0.000169794 -0 -3.58557e-06)
(0.000221377 -0.0224374 -0 -0.000218973 -0 -2.40407e-06)
(0.000256923 -0.0226882 -0 -0.000250513 -0 -6.41025e-06)
(0.000272539 -0.0228866 -0 -0.000267313 -0 -5.22612e-06)
(0.000277139 -0.0230237 -0 -0.000275064 -0 -2.07511e-06)
(0.000278245 -0.023127 -0 -0.000278057 -0 -1.87567e-07)
(0.000277181 -0.0231777 -0 -0.000277685 -0 5.03724e-07)
(0.000274152 -0.0232108 -0 -0.000275063 -0 9.11017e-07)
(0.000269117 -0.0231954 -0 -0.000270445 -0 1.32859e-06)
(0.000263252 -0.0231683 -0 -0.000264919 -0 1.66683e-06)
(0.000256884 -0.0231238 -0 -0.000258749 -0 1.86509e-06)
(0.000250115 -0.0230567 -0 -0.000252074 -0 1.95957e-06)
(0.000243144 -0.0229753 -0 -0.000245143 -0 1.99978e-06)
(0.000236085 -0.0228823 -0 -0.000238092 -0 2.0071e-06)
(0.000229035 -0.0227799 -0 -0.000231023 -0 1.98801e-06)
(0.00022206 -0.0226699 -0 -0.000224008 -0 1.94832e-06)
(0.000215203 -0.0225541 -0 -0.000217098 -0 1.89489e-06)
(0.000208495 -0.0224338 -0 -0.000210328 -0 1.83334e-06)
(0.000201957 -0.0223104 -0 -0.000203724 -0 1.76733e-06)
(0.000195604 -0.0221847 -0 -0.000197303 -0 1.69928e-06)
(0.000189446 -0.0220577 -0 -0.000191077 -0 1.63082e-06)
(0.000183488 -0.0219302 -0 -0.000185051 -0 1.56315e-06)
(0.000177733 -0.0218027 -0 -0.00017923 -0 1.49714e-06)
(0.00017218 -0.0216757 -0 -0.000173614 -0 1.43345e-06)
(0.000166828 -0.0215498 -0 -0.0001682 -0 1.37252e-06)
(0.000161673 -0.0214251 -0 -0.000162987 -0 1.31453e-06)
(0.000156711 -0.0213021 -0 -0.00015797 -0 1.25949e-06)
(0.000151936 -0.0211809 -0 -0.000153144 -0 1.20738e-06)
(0.000147345 -0.0210617 -0 -0.000148503 -0 1.15816e-06)
(0.000142931 -0.0209447 -0 -0.000144042 -0 1.11178e-06)
(0.000138687 -0.02083 -0 -0.000139755 -0 1.0683e-06)
(0.000134607 -0.0207176 -0 -0.000135635 -0 1.02748e-06)
(0.000130687 -0.0206076 -0 -0.000131676 -0 9.8909e-07)
(0.000126919 -0.0205001 -0 -0.000127872 -0 9.52955e-07)
(0.000123298 -0.020395 -0 -0.000124217 -0 9.18924e-07)
(0.000119818 -0.0202924 -0 -0.000120705 -0 8.86863e-07)
(0.000116473 -0.0201922 -0 -0.00011733 -0 8.56645e-07)
(0.000113259 -0.0200944 -0 -0.000114087 -0 8.28149e-07)
(0.000110169 -0.019999 -0 -0.00011097 -0 8.01252e-07)
(0.000107199 -0.0199059 -0 -0.000107975 -0 7.75833e-07)
(0.000104343 -0.0198151 -0 -0.000105095 -0 7.51788e-07)
(0.000101598 -0.0197266 -0 -0.000102327 -0 7.2902e-07)
(9.89572e-05 -0.0196403 -0 -9.96647e-05 -0 7.07444e-07)
(9.64175e-05 -0.0195562 -0 -9.71045e-05 -0 6.86978e-07)
(9.39742e-05 -0.0194741 -0 -9.46418e-05 -0 6.67548e-07)
(9.16233e-05 -0.0193941 -0 -9.22724e-05 -0 6.49087e-07)
(8.93609e-05 -0.0193161 -0 -8.99924e-05 -0 6.3153e-07)
(8.71831e-05 -0.0192399 -0 -8.77979e-05 -0 6.14814e-07)
(8.50863e-05 -0.0191657 -0 -8.56852e-05 -0 5.98886e-07)
(8.30672e-05 -0.0190933 -0 -8.36509e-05 -0 5.83697e-07)
(8.11223e-05 -0.0190226 -0 -8.16915e-05 -0 5.69197e-07)
(7.92485e-05 -0.0189536 -0 -7.98038e-05 -0 5.5534e-07)
(7.74428e-05 -0.0188863 -0 -7.79849e-05 -0 5.42092e-07)
(7.57022e-05 -0.0188205 -0 -7.62316e-05 -0 5.29419e-07)
(7.4024e-05 -0.0187563 -0 -7.45413e-05 -0 5.17283e-07)
(7.24055e-05 -0.0186936 -0 -7.29111e-05 -0 5.05652e-07)
(7.08442e-05 -0.0186324 -0 -7.13387e-05 -0 4.94499e-07)
(6.93376e-05 -0.0185725 -0 -6.98214e-05 -0 4.83801e-07)
(6.78835e-05 -0.018514 -0 -6.83571e-05 -0 4.73525e-07)
(6.64797e-05 -0.0184568 -0 -6.69433e-05 -0 4.63648e-07)
(6.51239e-05 -0.0184008 -0 -6.55781e-05 -0 4.54154e-07)
(6.38142e-05 -0.0183461 -0 -6.42592e-05 -0 4.45025e-07)
(6.25487e-05 -0.0182925 -0 -6.29849e-05 -0 4.36237e-07)
(6.13255e-05 -0.0182401 -0 -6.17532e-05 -0 4.27768e-07)
(6.01428e-05 -0.0181887 -0 -6.05624e-05 -0 4.19605e-07)
(5.8999e-05 -0.0181385 -0 -5.94108e-05 -0 4.11738e-07)
(5.78925e-05 -0.0180892 -0 -5.82966e-05 -0 4.0415e-07)
(5.68217e-05 -0.018041 -0 -5.72185e-05 -0 3.96827e-07)
(5.57852e-05 -0.0179937 -0 -5.61749e-05 -0 3.89753e-07)
(5.47816e-05 -0.0179473 -0 -5.51645e-05 -0 3.82917e-07)
(5.38095e-05 -0.0179019 -0 -5.41858e-05 -0 3.76308e-07)
(5.28677e-05 -0.0178573 -0 -5.32377e-05 -0 3.69918e-07)
(5.19551e-05 -0.0178135 -0 -5.23188e-05 -0 3.63728e-07)
(5.10703e-05 -0.0177706 -0 -5.14281e-05 -0 3.57739e-07)
(5.02124e-05 -0.0177285 -0 -5.05644e-05 -0 3.51934e-07)
(4.93804e-05 -0.0176871 -0 -4.97267e-05 -0 3.46309e-07)
(4.85732e-05 -0.0176464 -0 -4.8914e-05 -0 3.40842e-07)
(4.779e-05 -0.0176065 -0 -4.81255e-05 -0 3.35542e-07)
(4.70299e-05 -0.0175673 -0 -4.73603e-05 -0 3.30379e-07)
(4.62921e-05 -0.0175287 -0 -4.66175e-05 -0 3.25363e-07)
(4.55761e-05 -0.0174908 -0 -4.58966e-05 -0 3.20455e-07)
(4.48812e-05 -0.0174535 -0 -4.51969e-05 -0 3.1567e-07)
(4.42071e-05 -0.0174169 -0 -4.4518e-05 -0 3.10939e-07)
(4.35534e-05 -0.0173808 -0 -4.38597e-05 -0 3.06265e-07)
(4.29205e-05 -0.0173453 -0 -4.32221e-05 -0 3.01531e-07)
(4.23091e-05 -0.0173104 -0 -4.26058e-05 -0 2.96696e-07)
(4.1721e-05 -0.017276 -0 -4.20125e-05 -0 2.91458e-07)
(4.116e-05 -0.0172421 -0 -4.14455e-05 -0 2.85518e-07)
(4.06342e-05 -0.0172088 -0 -4.09122e-05 -0 2.78004e-07)
(4.01497e-05 -0.0171759 -0 -4.04205e-05 -0 2.70761e-07)
(3.97274e-05 -0.0171435 -0 -3.99783e-05 -0 2.50886e-07)
(3.9364e-05 -0.0171115 -0 -3.95892e-05 -0 2.25232e-07)
(3.90325e-05 -0.01708 -0 -3.92454e-05 -0 2.12892e-07)
(3.87294e-05 -0.0170489 -0 -3.89352e-05 -0 2.05795e-07)
(3.8448e-05 -0.0170182 -0 -3.86473e-05 -0 1.99381e-07)
(3.81797e-05 -0.0169878 -0 -3.83736e-05 -0 1.93939e-07)
(3.79185e-05 -0.0169577 -0 -3.81085e-05 -0 1.90029e-07)
(3.76612e-05 -0.0169279 -0 -3.78485e-05 -0 1.87292e-07)
(3.74064e-05 -0.0168984 -0 -3.75916e-05 -0 1.85206e-07)
(3.71526e-05 -0.0168691 -0 -3.73361e-05 -0 1.8352e-07)
(3.68989e-05 -0.0168401 -0 -3.70811e-05 -0 1.82153e-07)
(3.66448e-05 -0.0168114 -0 -3.68259e-05 -0 1.8104e-07)
(3.63899e-05 -0.0167828 -0 -3.657e-05 -0 1.80107e-07)
(3.61339e-05 -0.0167545 -0 -3.63132e-05 -0 1.79299e-07)
(3.58767e-05 -0.0167264 -0 -3.60553e-05 -0 1.78577e-07)
(3.56184e-05 -0.0166985 -0 -3.57963e-05 -0 1.77918e-07)
(3.53588e-05 -0.0166709 -0 -3.55361e-05 -0 1.77296e-07)
(3.50981e-05 -0.0166434 -0 -3.52748e-05 -0 1.76693e-07)
(3.48363e-05 -0.0166162 -0 -3.50124e-05 -0 1.76097e-07)
(3.45736e-05 -0.0165891 -0 -3.47491e-05 -0 1.75503e-07)
(3.431e-05 -0.0165622 -0 -3.44849e-05 -0 1.74901e-07)
(3.40457e-05 -0.0165356 -0 -3.422e-05 -0 1.74287e-07)
(3.37808e-05 -0.0165091 -0 -3.39544e-05 -0 1.73663e-07)
(3.35154e-05 -0.0164828 -0 -3.36884e-05 -0 1.73021e-07)
(3.32497e-05 -0.0164568 -0 -3.34221e-05 -0 1.72357e-07)
(3.29838e-05 -0.0164309 -0 -3.31555e-05 -0 1.71667e-07)
(3.27179e-05 -0.0164052 -0 -3.28889e-05 -0 1.70956e-07)
(3.24521e-05 -0.0163798 -0 -3.26224e-05 -0 1.70227e-07)
(3.21866e-05 -0.0163545 -0 -3.23561e-05 -0 1.6948e-07)
(3.19214e-05 -0.0163294 -0 -3.20902e-05 -0 1.68713e-07)
(3.16568e-05 -0.0163045 -0 -3.18247e-05 -0 1.67924e-07)
(3.13929e-05 -0.0162798 -0 -3.156e-05 -0 1.67109e-07)
(3.11297e-05 -0.0162553 -0 -3.1296e-05 -0 1.66268e-07)
(3.08675e-05 -0.016231 -0 -3.1033e-05 -0 1.65408e-07)
(3.06064e-05 -0.0162069 -0 -3.07709e-05 -0 1.64535e-07)
(3.03465e-05 -0.016183 -0 -3.05101e-05 -0 1.63644e-07)
(3.00878e-05 -0.0161592 -0 -3.02506e-05 -0 1.62722e-07)
(2.98307e-05 -0.0161357 -0 -2.99924e-05 -0 1.6178e-07)
(2.9575e-05 -0.0161124 -0 -2.97358e-05 -0 1.60815e-07)
(2.9321e-05 -0.0160892 -0 -2.94808e-05 -0 1.59835e-07)
(2.90687e-05 -0.0160662 -0 -2.92275e-05 -0 1.58824e-07)
(2.88181e-05 -0.0160434 -0 -2.89759e-05 -0 1.57802e-07)
(2.85694e-05 -0.0160209 -0 -2.87262e-05 -0 1.56754e-07)
(2.83226e-05 -0.0159984 -0 -2.84783e-05 -0 1.557e-07)
(2.80778e-05 -0.0159762 -0 -2.82324e-05 -0 1.54623e-07)
(2.78348e-05 -0.0159541 -0 -2.79883e-05 -0 1.53533e-07)
(2.75937e-05 -0.0159323 -0 -2.77462e-05 -0 1.52429e-07)
(2.73546e-05 -0.0159106 -0 -2.75059e-05 -0 1.51317e-07)
(2.71172e-05 -0.0158891 -0 -2.72675e-05 -0 1.50216e-07)
(2.68817e-05 -0.0158677 -0 -2.70308e-05 -0 1.49103e-07)
(2.66478e-05 -0.0158466 -0 -2.67958e-05 -0 1.48007e-07)
(2.64155e-05 -0.0158256 -0 -2.65624e-05 -0 1.46902e-07)
(2.61846e-05 -0.0158048 -0 -2.63305e-05 -0 1.4582e-07)
(2.59552e-05 -0.0157841 -0 -2.60999e-05 -0 1.44752e-07)
(2.5727e-05 -0.0157637 -0 -2.58707e-05 -0 1.437e-07)
(2.54999e-05 -0.0157434 -0 -2.56426e-05 -0 1.42642e-07)
(2.5274e-05 -0.0157232 -0 -2.54156e-05 -0 1.41579e-07)
(2.5049e-05 -0.0157033 -0 -2.51896e-05 -0 1.40551e-07)
(2.48248e-05 -0.0156835 -0 -2.49644e-05 -0 1.39547e-07)
(2.46013e-05 -0.0156639 -0 -2.47399e-05 -0 1.386e-07)
(2.43782e-05 -0.0156445 -0 -2.45159e-05 -0 1.37708e-07)
(2.41555e-05 -0.0156253 -0 -2.42924e-05 -0 1.36886e-07)
(2.39331e-05 -0.0156062 -0 -2.40692e-05 -0 1.36121e-07)
(2.37107e-05 -0.0155873 -0 -2.38461e-05 -0 1.35394e-07)
(2.34885e-05 -0.0155686 -0 -2.36232e-05 -0 1.34719e-07)
(2.32662e-05 -0.0155501 -0 -2.34003e-05 -0 1.34079e-07)
(2.30439e-05 -0.0155318 -0 -2.31774e-05 -0 1.33496e-07)
(2.28214e-05 -0.0155136 -0 -2.29544e-05 -0 1.32938e-07)
(2.2599e-05 -0.0154956 -0 -2.27314e-05 -0 1.32411e-07)
(2.23765e-05 -0.0154778 -0 -2.25084e-05 -0 1.31901e-07)
(2.2154e-05 -0.0154602 -0 -2.22854e-05 -0 1.3139e-07)
(2.19317e-05 -0.0154428 -0 -2.20626e-05 -0 1.30893e-07)
(2.17097e-05 -0.0154255 -0 -2.18401e-05 -0 1.30392e-07)
(2.14881e-05 -0.0154085 -0 -2.16181e-05 -0 1.29923e-07)
(2.12672e-05 -0.0153916 -0 -2.13967e-05 -0 1.29474e-07)
(2.10472e-05 -0.0153749 -0 -2.11762e-05 -0 1.29028e-07)
(2.08283e-05 -0.0153584 -0 -2.09569e-05 -0 1.28568e-07)
(2.06109e-05 -0.0153421 -0 -2.0739e-05 -0 1.28059e-07)
(2.03952e-05 -0.015326 -0 -2.05227e-05 -0 1.27523e-07)
(2.01816e-05 -0.01531 -0 -2.03085e-05 -0 1.26938e-07)
(1.99702e-05 -0.0152942 -0 -2.00966e-05 -0 1.26319e-07)
(1.97615e-05 -0.0152786 -0 -1.98871e-05 -0 1.25633e-07)
(1.95556e-05 -0.0152631 -0 -1.96805e-05 -0 1.2488e-07)
(1.93528e-05 -0.0152478 -0 -1.94768e-05 -0 1.24003e-07)
(1.91531e-05 -0.0152327 -0 -1.92762e-05 -0 1.23102e-07)
(1.89569e-05 -0.0152177 -0 -1.90789e-05 -0 1.2206e-07)
(1.8764e-05 -0.0152029 -0 -1.8885e-05 -0 1.20962e-07)
(1.85742e-05 -0.0151882 -0 -1.86943e-05 -0 1.20057e-07)
(1.83876e-05 -0.0151736 -0 -1.85067e-05 -0 1.19099e-07)
(1.82043e-05 -0.0151592 -0 -1.83225e-05 -0 1.1827e-07)
(1.80228e-05 -0.015145 -0 -1.81409e-05 -0 1.1815e-07)
(1.78429e-05 -0.0151309 -0 -1.79611e-05 -0 1.18199e-07)
(1.76662e-05 -0.0151169 -0 -1.77841e-05 -0 1.17892e-07)
(1.74936e-05 -0.0151031 -0 -1.76108e-05 -0 1.17182e-07)
(1.73239e-05 -0.0150893 -0 -1.74403e-05 -0 1.16417e-07)
(1.71547e-05 -0.0150758 -0 -1.7271e-05 -0 1.16296e-07)
(1.69863e-05 -0.0150623 -0 -1.71022e-05 -0 1.15983e-07)
(1.6821e-05 -0.015049 -0 -1.69357e-05 -0 1.14728e-07)
(1.66594e-05 -0.0150358 -0 -1.67723e-05 -0 1.12847e-07)
(1.64984e-05 -0.0150228 -0 -1.66093e-05 -0 1.10878e-07)
(1.63364e-05 -0.0150099 -0 -1.64456e-05 -0 1.09166e-07)
(1.61747e-05 -0.0149971 -0 -1.62828e-05 -0 1.08009e-07)
(1.6014e-05 -0.0149844 -0 -1.61211e-05 -0 1.07154e-07)
(1.58551e-05 -0.0149719 -0 -1.59612e-05 -0 1.06148e-07)
(1.56989e-05 -0.0149594 -0 -1.58037e-05 -0 1.04728e-07)
(1.55455e-05 -0.0149472 -0 -1.56486e-05 -0 1.03086e-07)
(1.5393e-05 -0.014935 -0 -1.54951e-05 -0 1.02023e-07)
(1.52406e-05 -0.0149229 -0 -1.53419e-05 -0 1.01366e-07)
(1.50888e-05 -0.014911 -0 -1.51898e-05 -0 1.00963e-07)
(1.49389e-05 -0.0148992 -0 -1.50396e-05 -0 1.00713e-07)
(1.47905e-05 -0.0148875 -0 -1.48914e-05 -0 1.00837e-07)
(1.46413e-05 -0.014876 -0 -1.47424e-05 -0 1.01139e-07)
(1.4493e-05 -0.0148645 -0 -1.45936e-05 -0 1.00634e-07)
(1.43496e-05 -0.0148532 -0 -1.44498e-05 -0 1.00257e-07)
(1.421e-05 -0.0148419 -0 -1.431e-05 -0 1.00003e-07)
(1.40743e-05 -0.0148308 -0 -1.41727e-05 -0 9.83058e-08)
(1.3943e-05 -0.0148198 -0 -1.40391e-05 -0 9.61574e-08)
(1.38115e-05 -0.0148089 -0 -1.39064e-05 -0 9.4895e-08)
(1.36779e-05 -0.0147981 -0 -1.37735e-05 -0 9.55634e-08)
(1.35441e-05 -0.0147874 -0 -1.36413e-05 -0 9.71927e-08)
(1.34146e-05 -0.0147768 -0 -1.35119e-05 -0 9.73738e-08)
(1.32907e-05 -0.0147663 -0 -1.33879e-05 -0 9.72408e-08)
(1.31683e-05 -0.0147559 -0 -1.32654e-05 -0 9.71232e-08)
(1.30459e-05 -0.0147456 -0 -1.3141e-05 -0 9.51441e-08)
(1.29277e-05 -0.0147354 -0 -1.30194e-05 -0 9.16888e-08)
(1.28154e-05 -0.0147252 -0 -1.29038e-05 -0 8.84049e-08)
(1.27057e-05 -0.0147152 -0 -1.27916e-05 -0 8.59528e-08)
(1.25956e-05 -0.0147052 -0 -1.2681e-05 -0 8.5307e-08)
(1.24844e-05 -0.0146953 -0 -1.25708e-05 -0 8.63453e-08)
(1.23733e-05 -0.0146855 -0 -1.24604e-05 -0 8.70323e-08)
(1.22674e-05 -0.0146758 -0 -1.23528e-05 -0 8.53819e-08)
(1.21699e-05 -0.0146661 -0 -1.22524e-05 -0 8.25483e-08)
(1.20773e-05 -0.0146565 -0 -1.2158e-05 -0 8.07694e-08)
(1.19839e-05 -0.014647 -0 -1.20649e-05 -0 8.10093e-08)
(1.18879e-05 -0.0146375 -0 -1.19699e-05 -0 8.20549e-08)
(1.17912e-05 -0.0146281 -0 -1.18729e-05 -0 8.17106e-08)
(1.16972e-05 -0.0146188 -0 -1.17779e-05 -0 8.07318e-08)
(1.16062e-05 -0.0146096 -0 -1.16864e-05 -0 8.01729e-08)
(1.15157e-05 -0.0146004 -0 -1.15959e-05 -0 8.01544e-08)
(1.14287e-05 -0.0145912 -0 -1.15081e-05 -0 7.93704e-08)
(1.13474e-05 -0.0145821 -0 -1.14244e-05 -0 7.69776e-08)
(1.12697e-05 -0.0145731 -0 -1.13442e-05 -0 7.45608e-08)
(1.11921e-05 -0.0145642 -0 -1.12662e-05 -0 7.41136e-08)
(1.11121e-05 -0.0145553 -0 -1.1187e-05 -0 7.49933e-08)
(1.103e-05 -0.0145464 -0 -1.11055e-05 -0 7.54394e-08)
(1.09492e-05 -0.0145377 -0 -1.10245e-05 -0 7.52813e-08)
(1.0872e-05 -0.0145289 -0 -1.09461e-05 -0 7.40631e-08)
(1.07977e-05 -0.0145203 -0 -1.08703e-05 -0 7.25327e-08)
(1.07241e-05 -0.0145117 -0 -1.07961e-05 -0 7.19997e-08)
(1.06511e-05 -0.0145031 -0 -1.07229e-05 -0 7.17837e-08)
(1.05822e-05 -0.0144946 -0 -1.0653e-05 -0 7.08845e-08)
(1.05176e-05 -0.0144861 -0 -1.05875e-05 -0 6.98509e-08)
(1.04534e-05 -0.0144777 -0 -1.05225e-05 -0 6.90843e-08)
(1.03877e-05 -0.0144693 -0 -1.04564e-05 -0 6.87472e-08)
(1.03233e-05 -0.014461 -0 -1.03915e-05 -0 6.82129e-08)
(1.02617e-05 -0.0144528 -0 -1.03284e-05 -0 6.67512e-08)
(1.02012e-05 -0.0144446 -0 -1.02674e-05 -0 6.62137e-08)
(1.01378e-05 -0.0144364 -0 -1.0204e-05 -0 6.6278e-08)
(1.00731e-05 -0.0144283 -0 -1.0139e-05 -0 6.59082e-08)
(1.00111e-05 -0.0144202 -0 -1.00765e-05 -0 6.5414e-08)
(9.95018e-06 -0.0144122 -0 -1.0015e-05 -0 6.48331e-08)
(9.88948e-06 -0.0144042 -0 -9.95416e-06 -0 6.468e-08)
(9.83018e-06 -0.0143963 -0 -9.89497e-06 -0 6.47878e-08)
(9.77259e-06 -0.0143884 -0 -9.83718e-06 -0 6.45956e-08)
(9.71435e-06 -0.0143806 -0 -9.77825e-06 -0 6.39023e-08)
(9.65543e-06 -0.0143728 -0 -9.71869e-06 -0 6.32594e-08)
(9.59801e-06 -0.014365 -0 -9.66076e-06 -0 6.27513e-08)
(9.54213e-06 -0.0143573 -0 -9.60439e-06 -0 6.22557e-08)
(9.48686e-06 -0.0143496 -0 -9.5486e-06 -0 6.17362e-08)
(9.43185e-06 -0.014342 -0 -9.49317e-06 -0 6.13147e-08)
(9.37805e-06 -0.0143344 -0 -9.4389e-06 -0 6.08559e-08)
(9.32592e-06 -0.0143269 -0 -9.38619e-06 -0 6.02727e-08)
(9.27448e-06 -0.0143194 -0 -9.33443e-06 -0 5.99481e-08)
(9.22358e-06 -0.0143119 -0 -9.28327e-06 -0 5.96865e-08)
(9.17393e-06 -0.0143045 -0 -9.2334e-06 -0 5.9478e-08)
(9.12572e-06 -0.0142971 -0 -9.18494e-06 -0 5.92198e-08)
(9.07842e-06 -0.0142897 -0 -9.13741e-06 -0 5.89948e-08)
(9.03156e-06 -0.0142824 -0 -9.09047e-06 -0 5.89122e-08)
(8.9855e-06 -0.0142751 -0 -9.04432e-06 -0 5.88195e-08)
(8.94033e-06 -0.0142678 -0 -8.99902e-06 -0 5.8687e-08)
(8.89621e-06 -0.0142606 -0 -8.95439e-06 -0 5.81706e-08)
(8.85299e-06 -0.0142534 -0 -8.91054e-06 -0 5.75513e-08)
(8.80991e-06 -0.0142463 -0 -8.86695e-06 -0 5.70409e-08)
(8.76694e-06 -0.0142391 -0 -8.8234e-06 -0 5.64571e-08)
(8.72413e-06 -0.0142321 -0 -8.78009e-06 -0 5.59621e-08)
(8.68187e-06 -0.014225 -0 -8.73694e-06 -0 5.5071e-08)
(8.64041e-06 -0.014218 -0 -8.69437e-06 -0 5.39534e-08)
(8.59878e-06 -0.014211 -0 -8.65185e-06 -0 5.30621e-08)
(8.55678e-06 -0.014204 -0 -8.60912e-06 -0 5.23438e-08)
(8.515e-06 -0.0141971 -0 -8.56683e-06 -0 5.18328e-08)
(8.47332e-06 -0.0141902 -0 -8.52483e-06 -0 5.15157e-08)
(8.43149e-06 -0.0141833 -0 -8.48298e-06 -0 5.14831e-08)
(8.38971e-06 -0.0141765 -0 -8.4414e-06 -0 5.16814e-08)
(8.34818e-06 -0.0141697 -0 -8.40012e-06 -0 5.19344e-08)
(8.30691e-06 -0.014163 -0 -8.35905e-06 -0 5.21334e-08)
(8.26584e-06 -0.0141563 -0 -8.31808e-06 -0 5.22335e-08)
(8.22489e-06 -0.0141496 -0 -8.27715e-06 -0 5.22657e-08)
(8.18397e-06 -0.0141429 -0 -8.23625e-06 -0 5.22811e-08)
(8.14298e-06 -0.0141363 -0 -8.19531e-06 -0 5.23308e-08)
(8.1019e-06 -0.0141297 -0 -8.15428e-06 -0 5.23786e-08)
(8.06075e-06 -0.0141232 -0 -8.11311e-06 -0 5.23552e-08)
(8.01959e-06 -0.0141167 -0 -8.07184e-06 -0 5.22488e-08)
(7.97843e-06 -0.0141102 -0 -8.03052e-06 -0 5.2091e-08)
(7.93729e-06 -0.0141038 -0 -7.98924e-06 -0 5.19564e-08)
(7.89616e-06 -0.0140974 -0 -7.94803e-06 -0 5.18697e-08)
(7.85497e-06 -0.0140911 -0 -7.90685e-06 -0 5.18766e-08)
(7.81349e-06 -0.0140847 -0 -7.86534e-06 -0 5.18489e-08)
(7.77187e-06 -0.0140785 -0 -7.82358e-06 -0 5.17124e-08)
(7.73082e-06 -0.0140722 -0 -7.7824e-06 -0 5.1584e-08)
(7.69052e-06 -0.014066 -0 -7.74206e-06 -0 5.15448e-08)
(7.65033e-06 -0.0140598 -0 -7.70161e-06 -0 5.12736e-08)
(7.61089e-06 -0.0140537 -0 -7.66183e-06 -0 5.09398e-08)
(7.57287e-06 -0.0140476 -0 -7.62375e-06 -0 5.08772e-08)
(7.53559e-06 -0.0140415 -0 -7.58631e-06 -0 5.07248e-08)
(7.49851e-06 -0.0140354 -0 -7.54898e-06 -0 5.04687e-08)
(7.46166e-06 -0.0140294 -0 -7.51183e-06 -0 5.01646e-08)
(7.42521e-06 -0.0140234 -0 -7.4751e-06 -0 4.9885e-08)
(7.3893e-06 -0.0140174 -0 -7.43891e-06 -0 4.96133e-08)
(7.35397e-06 -0.0140115 -0 -7.40331e-06 -0 4.93417e-08)
(7.31931e-06 -0.0140056 -0 -7.36836e-06 -0 4.90493e-08)
(7.28529e-06 -0.0139997 -0 -7.33407e-06 -0 4.87857e-08)
(7.25194e-06 -0.0139938 -0 -7.30045e-06 -0 4.85075e-08)
(7.21917e-06 -0.013988 -0 -7.26741e-06 -0 4.82384e-08)
(7.18683e-06 -0.0139822 -0 -7.23485e-06 -0 4.80145e-08)
(7.15452e-06 -0.0139764 -0 -7.20229e-06 -0 4.77648e-08)
(7.1224e-06 -0.0139706 -0 -7.16987e-06 -0 4.7462e-08)
(7.09097e-06 -0.0139649 -0 -7.13824e-06 -0 4.72712e-08)
(7.06025e-06 -0.0139592 -0 -7.10731e-06 -0 4.70618e-08)
(7.03022e-06 -0.0139535 -0 -7.07705e-06 -0 4.68357e-08)
(7.00095e-06 -0.0139478 -0 -7.04759e-06 -0 4.66402e-08)
(6.97198e-06 -0.0139422 -0 -7.01838e-06 -0 4.63975e-08)
(6.94294e-06 -0.0139365 -0 -6.98897e-06 -0 4.60347e-08)
(6.91357e-06 -0.0139309 -0 -6.95916e-06 -0 4.55939e-08)
(6.8842e-06 -0.0139254 -0 -6.92945e-06 -0 4.52466e-08)
(6.85514e-06 -0.0139198 -0 -6.90026e-06 -0 4.51262e-08)
(6.82623e-06 -0.0139143 -0 -6.87124e-06 -0 4.50072e-08)
(6.79727e-06 -0.0139088 -0 -6.84215e-06 -0 4.48823e-08)
(6.76827e-06 -0.0139033 -0 -6.81301e-06 -0 4.47422e-08)
(6.73928e-06 -0.0138978 -0 -6.78391e-06 -0 4.4635e-08)
(6.71042e-06 -0.0138924 -0 -6.75493e-06 -0 4.45069e-08)
(6.6816e-06 -0.013887 -0 -6.72593e-06 -0 4.43235e-08)
(6.65267e-06 -0.0138816 -0 -6.6968e-06 -0 4.41284e-08)
(6.62369e-06 -0.0138762 -0 -6.66754e-06 -0 4.3853e-08)
(6.5947e-06 -0.0138709 -0 -6.63828e-06 -0 4.35811e-08)
(6.56567e-06 -0.0138656 -0 -6.60899e-06 -0 4.33148e-08)
(6.53641e-06 -0.0138603 -0 -6.57959e-06 -0 4.31859e-08)
(6.50695e-06 -0.013855 -0 -6.55e-06 -0 4.30466e-08)
(6.47724e-06 -0.0138498 -0 -6.52014e-06 -0 4.29041e-08)
(6.44712e-06 -0.0138445 -0 -6.48989e-06 -0 4.27763e-08)
(6.41672e-06 -0.0138393 -0 -6.45937e-06 -0 4.2652e-08)
(6.38604e-06 -0.0138342 -0 -6.42873e-06 -0 4.26886e-08)
(6.3553e-06 -0.0138291 -0 -6.39799e-06 -0 4.26888e-08)
(6.32428e-06 -0.0138239 -0 -6.36706e-06 -0 4.27827e-08)
(6.29329e-06 -0.0138189 -0 -6.33614e-06 -0 4.28482e-08)
(6.26255e-06 -0.0138138 -0 -6.30537e-06 -0 4.28202e-08)
(6.23225e-06 -0.0138088 -0 -6.27495e-06 -0 4.27027e-08)
(6.20224e-06 -0.0138038 -0 -6.24483e-06 -0 4.25856e-08)
(6.17256e-06 -0.0137989 -0 -6.21509e-06 -0 4.25257e-08)
(6.14355e-06 -0.013794 -0 -6.18575e-06 -0 4.22063e-08)
(6.11463e-06 -0.013789 -0 -6.15667e-06 -0 4.20396e-08)
(6.08623e-06 -0.0137842 -0 -6.12799e-06 -0 4.17517e-08)
(6.05826e-06 -0.0137793 -0 -6.10001e-06 -0 4.17511e-08)
(6.03094e-06 -0.0137745 -0 -6.07258e-06 -0 4.16353e-08)
(6.00397e-06 -0.0137696 -0 -6.0455e-06 -0 4.15321e-08)
(5.97717e-06 -0.0137648 -0 -6.01843e-06 -0 4.12644e-08)
(5.9505e-06 -0.01376 -0 -5.9914e-06 -0 4.09002e-08)
(5.92354e-06 -0.0137553 -0 -5.96422e-06 -0 4.06809e-08)
(5.89675e-06 -0.0137505 -0 -5.93701e-06 -0 4.02599e-08)
(5.8695e-06 -0.0137458 -0 -5.90975e-06 -0 4.02474e-08)
(5.8418e-06 -0.0137411 -0 -5.88201e-06 -0 4.02117e-08)
(5.81374e-06 -0.0137364 -0 -5.85391e-06 -0 4.01686e-08)
(5.78477e-06 -0.0137318 -0 -5.82522e-06 -0 4.04492e-08)
(5.75584e-06 -0.0137272 -0 -5.79596e-06 -0 4.01194e-08)
(5.72624e-06 -0.0137226 -0 -5.76622e-06 -0 3.99738e-08)
(5.69666e-06 -0.0137181 -0 -5.73657e-06 -0 3.99132e-08)
(5.66841e-06 -0.0137135 -0 -5.70774e-06 -0 3.93368e-08)
(5.64132e-06 -0.0137091 -0 -5.67988e-06 -0 3.85545e-08)
(5.61479e-06 -0.0137046 -0 -5.65251e-06 -0 3.77215e-08)
(5.58698e-06 -0.0137002 -0 -5.62438e-06 -0 3.74006e-08)
(5.55792e-06 -0.0136957 -0 -5.59492e-06 -0 3.70031e-08)
(5.52542e-06 -0.0136914 -0 -5.56302e-06 -0 3.76029e-08)
(5.4901e-06 -0.013687 -0 -5.52836e-06 -0 3.8268e-08)
(5.456e-06 -0.0136828 -0 -5.4933e-06 -0 3.72945e-08)
(5.42066e-06 -0.0136785 -0 -5.45826e-06 -0 3.76047e-08)
(5.38685e-06 -0.0136743 -0 -5.42348e-06 -0 3.66357e-08)
(5.35321e-06 -0.0136701 -0 -5.38712e-06 -0 3.39047e-08)
(5.31114e-06 -0.0136659 -0 -5.34664e-06 -0 3.55012e-08)
(5.26678e-06 -0.0136618 -0 -5.303e-06 -0 3.6227e-08)
(5.22256e-06 -0.0136577 -0 -5.2577e-06 -0 3.51418e-08)
(5.17388e-06 -0.0136537 -0 -5.21096e-06 -0 3.70814e-08)
(5.12647e-06 -0.0136498 -0 -5.1623e-06 -0 3.58313e-08)
(5.07374e-06 -0.0136457 -0 -5.1101e-06 -0 3.63642e-08)
(5.01588e-06 -0.0136419 -0 -5.05469e-06 -0 3.88104e-08)
(4.9548e-06 -0.013638 -0 -4.99924e-06 -0 4.44386e-08)
(4.90216e-06 -0.0136341 -0 -4.94905e-06 -0 4.68892e-08)
(4.85688e-06 -0.0136304 -0 -4.90274e-06 -0 4.58647e-08)
(4.81112e-06 -0.0136263 -0 -4.8609e-06 -0 4.97746e-08)
(4.77709e-06 -0.0136227 -0 -4.82548e-06 -0 4.83873e-08)
(4.74937e-06 -0.0136188 -0 -4.79485e-06 -0 4.54721e-08)
(4.72882e-06 -0.0136147 -0 -4.77208e-06 -0 4.32562e-08)
(4.71028e-06 -0.0136111 -0 -4.75035e-06 -0 4.00712e-08)
(4.69048e-06 -0.0136068 -0 -4.72759e-06 -0 3.71149e-08)
(4.67012e-06 -0.0136029 -0 -4.70524e-06 -0 3.51252e-08)
(4.64852e-06 -0.0135991 -0 -4.68073e-06 -0 3.22078e-08)
(4.63136e-06 -0.0135944 -0 -4.66207e-06 -0 3.07095e-08)
(4.61176e-06 -0.013591 -0 -4.64179e-06 -0 3.0037e-08)
(4.58323e-06 -0.0135863 -0 -4.61396e-06 -0 3.0728e-08)
(4.55271e-06 -0.013582 -0 -4.58223e-06 -0 2.95198e-08)
(4.50896e-06 -0.0135782 -0 -4.53554e-06 -0 2.65874e-08)
(4.46508e-06 -0.0135725 -0 -4.4904e-06 -0 2.53254e-08)
(4.43091e-06 -0.013569 -0 -4.46089e-06 -0 2.9979e-08)
(4.40165e-06 -0.0135634 -0 -4.43572e-06 -0 3.40698e-08)
(4.37468e-06 -0.0135603 -0 -4.40939e-06 -0 3.47139e-08)
(4.33982e-06 -0.0135605 -0 -4.37968e-06 -0 3.98578e-08)
(4.30982e-06 -0.0135591 -0 -4.35082e-06 -0 4.10035e-08)
(4.28395e-06 -0.0135565 -0 -4.32433e-06 -0 4.03867e-08)
(4.26042e-06 -0.0135537 -0 -4.29897e-06 -0 3.8553e-08)
(4.24078e-06 -0.0135503 -0 -4.27738e-06 -0 3.65956e-08)
(4.22768e-06 -0.013547 -0 -4.26081e-06 -0 3.31311e-08)
(4.21305e-06 -0.0135434 -0 -4.24372e-06 -0 3.06738e-08)
(4.19153e-06 -0.0135398 -0 -4.22206e-06 -0 3.05228e-08)
(4.16641e-06 -0.0135363 -0 -4.19348e-06 -0 2.70641e-08)
(4.13611e-06 -0.0135324 -0 -4.16236e-06 -0 2.62414e-08)
(4.09748e-06 -0.0135288 -0 -4.12797e-06 -0 3.0496e-08)
(4.05712e-06 -0.013525 -0 -4.08945e-06 -0 3.2327e-08)
(4.02574e-06 -0.0135212 -0 -4.05739e-06 -0 3.16503e-08)
(4.00328e-06 -0.0135172 -0 -4.03369e-06 -0 3.04138e-08)
(3.97659e-06 -0.0135141 -0 -4.00467e-06 -0 2.80783e-08)
(3.95343e-06 -0.0135098 -0 -3.97921e-06 -0 2.57765e-08)
(3.94108e-06 -0.0135068 -0 -3.9672e-06 -0 2.61167e-08)
(3.93571e-06 -0.0135013 -0 -3.96155e-06 -0 2.58318e-08)
(3.93035e-06 -0.0135018 -0 -3.95623e-06 -0 2.58786e-08)
(3.90598e-06 -0.0134966 -0 -3.93292e-06 -0 2.69431e-08)
(3.86675e-06 -0.0134967 -0 -3.89827e-06 -0 3.15155e-08)
(3.82007e-06 -0.0134957 -0 -3.85485e-06 -0 3.4776e-08)
(3.77579e-06 -0.0134932 -0 -3.80999e-06 -0 3.42027e-08)
(3.73412e-06 -0.0134906 -0 -3.77222e-06 -0 3.80991e-08)
(3.70012e-06 -0.0134874 -0 -3.73992e-06 -0 3.97949e-08)
(3.67622e-06 -0.0134844 -0 -3.71279e-06 -0 3.65731e-08)
(3.66145e-06 -0.0134808 -0 -3.69384e-06 -0 3.23842e-08)
(3.65408e-06 -0.0134776 -0 -3.68166e-06 -0 2.75828e-08)
(3.65013e-06 -0.0134742 -0 -3.67288e-06 -0 2.2751e-08)
(3.64169e-06 -0.0134708 -0 -3.66516e-06 -0 2.34757e-08)
(3.61512e-06 -0.0134675 -0 -3.63529e-06 -0 2.01728e-08)
(3.57311e-06 -0.0134637 -0 -3.59317e-06 -0 2.00568e-08)
(3.53909e-06 -0.0134597 -0 -3.56133e-06 -0 2.22415e-08)
(3.50603e-06 -0.0134569 -0 -3.52929e-06 -0 2.32624e-08)
(3.48345e-06 -0.0134516 -0 -3.50854e-06 -0 2.50856e-08)
(3.46558e-06 -0.013452 -0 -3.49548e-06 -0 2.98991e-08)
(3.43587e-06 -0.013447 -0 -3.47072e-06 -0 3.48521e-08)
(3.40691e-06 -0.0134474 -0 -3.44154e-06 -0 3.46236e-08)
(3.36699e-06 -0.0134466 -0 -3.40473e-06 -0 3.77402e-08)
(3.33508e-06 -0.0134439 -0 -3.37013e-06 -0 3.50483e-08)
(3.30418e-06 -0.0134418 -0 -3.33624e-06 -0 3.20588e-08)
(3.26838e-06 -0.0134383 -0 -3.29861e-06 -0 3.02292e-08)
(3.22503e-06 -0.0134354 -0 -3.25482e-06 -0 2.9782e-08)
(3.18899e-06 -0.0134313 -0 -3.21664e-06 -0 2.76457e-08)
(3.17039e-06 -0.013428 -0 -3.19533e-06 -0 2.49379e-08)
(3.14916e-06 -0.0134247 -0 -3.17878e-06 -0 2.96263e-08)
(3.13903e-06 -0.0134227 -0 -3.17121e-06 -0 3.21736e-08)
(3.14588e-06 -0.0134178 -0 -3.17626e-06 -0 3.03728e-08)
(3.15638e-06 -0.0134188 -0 -3.18718e-06 -0 3.08048e-08)
(3.16251e-06 -0.0134141 -0 -3.19007e-06 -0 2.75595e-08)
(3.16709e-06 -0.0134147 -0 -3.19017e-06 -0 2.30766e-08)
(3.16236e-06 -0.0134139 -0 -3.18621e-06 -0 2.38568e-08)
(3.15154e-06 -0.0134119 -0 -3.17832e-06 -0 2.67825e-08)
(3.14264e-06 -0.0134092 -0 -3.16998e-06 -0 2.73321e-08)
(3.12951e-06 -0.0134065 -0 -3.15602e-06 -0 2.65148e-08)
(3.10223e-06 -0.0134038 -0 -3.12867e-06 -0 2.64471e-08)
(3.0766e-06 -0.0134002 -0 -3.09856e-06 -0 2.1965e-08)
(3.06399e-06 -0.0133964 -0 -3.0817e-06 -0 1.77147e-08)
(3.05659e-06 -0.0133937 -0 -3.07194e-06 -0 1.53513e-08)
(3.04809e-06 -0.0133905 -0 -3.06333e-06 -0 1.52336e-08)
(3.04397e-06 -0.0133854 -0 -3.06222e-06 -0 1.82546e-08)
(3.03755e-06 -0.0133829 -0 -3.05956e-06 -0 2.20069e-08)
(3.02189e-06 -0.0133816 -0 -3.04609e-06 -0 2.41997e-08)
(2.99585e-06 -0.0133815 -0 -3.02176e-06 -0 2.59107e-08)
(2.96677e-06 -0.0133806 -0 -2.9899e-06 -0 2.31269e-08)
(2.93684e-06 -0.0133782 -0 -2.95796e-06 -0 2.11191e-08)
(2.90432e-06 -0.0133756 -0 -2.92719e-06 -0 2.28683e-08)
(2.87668e-06 -0.0133729 -0 -2.89994e-06 -0 2.32531e-08)
(2.85744e-06 -0.0133701 -0 -2.87933e-06 -0 2.18835e-08)
(2.8365e-06 -0.0133676 -0 -2.85426e-06 -0 1.77599e-08)
(2.81808e-06 -0.0133646 -0 -2.83282e-06 -0 1.4734e-08)
(2.81605e-06 -0.0133596 -0 -2.83311e-06 -0 1.70674e-08)
(2.8126e-06 -0.0133571 -0 -2.83315e-06 -0 2.0551e-08)
(2.80439e-06 -0.0133548 -0 -2.8248e-06 -0 2.04164e-08)
(2.78501e-06 -0.0133526 -0 -2.8097e-06 -0 2.46884e-08)
(2.75614e-06 -0.0133539 -0 -2.78421e-06 -0 2.8072e-08)
(2.72952e-06 -0.0133537 -0 -2.75444e-06 -0 2.4915e-08)
(2.70642e-06 -0.0133517 -0 -2.73042e-06 -0 2.40022e-08)
(2.68036e-06 -0.0133499 -0 -2.70777e-06 -0 2.74013e-08)
(2.64601e-06 -0.013347 -0 -2.6766e-06 -0 3.05979e-08)
(2.6229e-06 -0.0133444 -0 -2.64872e-06 -0 2.58205e-08)
(2.60827e-06 -0.0133415 -0 -2.63079e-06 -0 2.25236e-08)
(2.58885e-06 -0.013339 -0 -2.61318e-06 -0 2.43256e-08)
(2.57849e-06 -0.0133367 -0 -2.59901e-06 -0 2.05199e-08)
(2.57902e-06 -0.0133319 -0 -2.59645e-06 -0 1.74321e-08)
(2.57205e-06 -0.0133325 -0 -2.59211e-06 -0 2.00564e-08)
(2.55263e-06 -0.0133283 -0 -2.57529e-06 -0 2.26629e-08)
(2.52755e-06 -0.0133291 -0 -2.55253e-06 -0 2.49813e-08)
(2.49562e-06 -0.0133287 -0 -2.52812e-06 -0 3.24997e-08)
(2.47746e-06 -0.0133267 -0 -2.51055e-06 -0 3.30891e-08)
(2.46099e-06 -0.013325 -0 -2.4896e-06 -0 2.86096e-08)
(2.4412e-06 -0.0133218 -0 -2.46754e-06 -0 2.63441e-08)
(2.43498e-06 -0.0133192 -0 -2.458e-06 -0 2.30173e-08)
(2.43094e-06 -0.0133165 -0 -2.45121e-06 -0 2.02658e-08)
(2.42951e-06 -0.0133148 -0 -2.44661e-06 -0 1.71039e-08)
(2.42979e-06 -0.0133106 -0 -2.44649e-06 -0 1.66947e-08)
(2.42847e-06 -0.0133116 -0 -2.4452e-06 -0 1.67335e-08)
(2.41705e-06 -0.0133075 -0 -2.43318e-06 -0 1.61244e-08)
(2.39593e-06 -0.013308 -0 -2.41345e-06 -0 1.75172e-08)
(2.37659e-06 -0.0133071 -0 -2.39094e-06 -0 1.43523e-08)
(2.36078e-06 -0.0133051 -0 -2.37158e-06 -0 1.07986e-08)
(2.33928e-06 -0.0133032 -0 -2.34984e-06 -0 1.0562e-08)
(2.32277e-06 -0.0133002 -0 -2.33022e-06 -0 7.44114e-09)
(2.30858e-06 -0.0132974 -0 -2.31922e-06 -0 1.06342e-08)
(2.29617e-06 -0.0132956 -0 -2.31309e-06 -0 1.69228e-08)
(2.2951e-06 -0.0132914 -0 -2.31533e-06 -0 2.02281e-08)
(2.29828e-06 -0.0132901 -0 -2.32166e-06 -0 2.33788e-08)
(2.29759e-06 -0.0132877 -0 -2.32073e-06 -0 2.3148e-08)
(2.2959e-06 -0.0132888 -0 -2.31761e-06 -0 2.17108e-08)
(2.28847e-06 -0.0132885 -0 -2.30932e-06 -0 2.08515e-08)
(2.27858e-06 -0.0132872 -0 -2.2936e-06 -0 1.50194e-08)
(2.26366e-06 -0.0132851 -0 -2.27561e-06 -0 1.19569e-08)
(2.24398e-06 -0.0132826 -0 -2.25886e-06 -0 1.48791e-08)
(2.21773e-06 -0.0132804 -0 -2.23384e-06 -0 1.61096e-08)
(2.20225e-06 -0.0132766 -0 -2.21698e-06 -0 1.47296e-08)
(2.18999e-06 -0.0132742 -0 -2.20409e-06 -0 1.41044e-08)
(2.1763e-06 -0.0132718 -0 -2.19101e-06 -0 1.4707e-08)
(2.17465e-06 -0.0132707 -0 -2.19486e-06 -0 2.02085e-08)
(2.17508e-06 -0.0132682 -0 -2.19694e-06 -0 2.18634e-08)
(2.17224e-06 -0.0132688 -0 -2.19349e-06 -0 2.12487e-08)
(2.15931e-06 -0.0132693 -0 -2.18295e-06 -0 2.36394e-08)
(2.14979e-06 -0.0132682 -0 -2.16996e-06 -0 2.01722e-08)
(2.14203e-06 -0.0132664 -0 -2.15941e-06 -0 1.73827e-08)