/*--------------------------------*- C++ -*----------------------------------*\
  =========                 |
  \\      /  F ield         | OpenFOAM: The Open Source CFD Toolbox
   \\    /   O peration     | Website:  https://openfoam.org
    \\  /    A nd           | Version:  7
     \\/     M anipulation  |
\*---------------------------------------------------------------------------*/
FoamFile
{
    version     2.0;
    format      ascii;
    class       volScalarField;
    location    "167";
    object      k;
}
// * * * * * * * * * * * * * * * * * * * * * * * * * * * * * * * * * * * * * //

dimensions      [0 2 -2 0 0 0 0];

internalField   nonuniform List<scalar> 
36000
(
0.052134
0.0534251
0.0545063
0.0553574
0.0560427
0.0565313
0.0569115
0.0571233
0.0572788
0.0572779
0.0572396
0.0571454
0.0569779
0.0567643
0.0565127
0.0562302
0.0559231
0.0555966
0.0552554
0.0549031
0.0545433
0.0541785
0.0538114
0.0534437
0.0530771
0.0527131
0.0523527
0.0519969
0.0516464
0.0513018
0.0509635
0.050632
0.0503074
0.04999
0.0496798
0.049377
0.0490814
0.0487932
0.0485122
0.0482383
0.0479714
0.0477114
0.0474582
0.0472116
0.0469714
0.0467374
0.0465096
0.0462877
0.0460715
0.045861
0.0456558
0.0454559
0.045261
0.045071
0.0448858
0.0447051
0.0445289
0.0443569
0.0441891
0.0440253
0.0438653
0.0437091
0.0435564
0.0434072
0.0432613
0.0431187
0.0429792
0.0428427
0.0427092
0.0425784
0.0424504
0.042325
0.0422021
0.0420817
0.0419637
0.0418479
0.0417344
0.041623
0.0415137
0.0414064
0.041301
0.0411975
0.0410959
0.040996
0.0408978
0.0408013
0.0407064
0.0406131
0.0405212
0.0404308
0.0403418
0.0402541
0.0401678
0.0400827
0.0399988
0.0399159
0.039834
0.0397529
0.0396727
0.0395932
0.0395145
0.0394364
0.039359
0.0392822
0.0392061
0.0391305
0.0390554
0.038981
0.0389071
0.0388337
0.0387609
0.0386886
0.0386169
0.0385457
0.038475
0.0384049
0.0383353
0.0382662
0.0381977
0.0381296
0.0380622
0.0379952
0.0379288
0.0378629
0.0377976
0.0377328
0.0376685
0.0376047
0.0375415
0.0374788
0.0374166
0.0373549
0.0372937
0.037233
0.0371729
0.0371132
0.0370541
0.0369954
0.0369372
0.0368795
0.0368223
0.0367656
0.0367094
0.0366537
0.0365984
0.0365436
0.0364893
0.0364355
0.0363822
0.0363293
0.0362769
0.0362251
0.0361737
0.0361228
0.0360724
0.0360226
0.0359732
0.0359243
0.035876
0.0358281
0.0357808
0.035734
0.0356877
0.035642
0.0355967
0.035552
0.0355078
0.0354642
0.035421
0.0353783
0.0353362
0.0352945
0.0352533
0.0352125
0.0351723
0.0351324
0.035093
0.035054
0.0350154
0.0349772
0.0349394
0.034902
0.034865
0.0348284
0.0347921
0.0347562
0.0347207
0.0346855
0.0346507
0.0346163
0.0345822
0.0345485
0.0345151
0.0344821
0.0344495
0.0344171
0.0343852
0.0343535
0.0343222
0.0342912
0.0342606
0.0342302
0.0342002
0.0341705
0.0341411
0.0341121
0.0340833
0.0340548
0.0340266
0.0339987
0.0339711
0.0339438
0.0339167
0.0338899
0.0338633
0.0338369
0.0338108
0.0337849
0.0337592
0.0337337
0.0337084
0.0336833
0.0336584
0.0336337
0.0336092
0.0335848
0.0335606
0.0335366
0.0335127
0.033489
0.0334654
0.033442
0.0334188
0.0333957
0.0333728
0.03335
0.0333274
0.0333049
0.0332826
0.0332604
0.0332383
0.0332163
0.0331945
0.0331728
0.0331513
0.0331299
0.0331086
0.0330874
0.0330664
0.0330454
0.0330246
0.033004
0.0329834
0.032963
0.0329427
0.0329225
0.0329024
0.0328824
0.0328625
0.0328427
0.0328231
0.0328035
0.032784
0.0327647
0.0327454
0.0327263
0.0327072
0.0326882
0.0326694
0.0326506
0.0326319
0.0326133
0.0325947
0.0325763
0.0325579
0.0325396
0.0325215
0.0325033
0.0324853
0.0324674
0.0324495
0.0324318
0.0324141
0.0323965
0.032379
0.0323616
0.0323443
0.0323271
0.03231
0.032293
0.0322761
0.0322593
0.0322426
0.032226
0.0322094
0.032193
0.0321767
0.0321605
0.0321444
0.0321283
0.0321124
0.0320966
0.0320808
0.0320651
0.0320496
0.032034
0.0320186
0.0320032
0.031988
0.0319727
0.0319576
0.0319425
0.0319275
0.0319125
0.0318977
0.0318828
0.0318681
0.0318533
0.0318387
0.0318241
0.0318096
0.0317951
0.0317808
0.0317664
0.0317522
0.0317379
0.0317238
0.0317096
0.0316956
0.0316816
0.0316677
0.0316538
0.0316401
0.0316263
0.0316127
0.031599
0.0315855
0.031572
0.0315586
0.0315452
0.031532
0.0315187
0.0315057
0.0314926
0.0314797
0.0314668
0.0314541
0.0314413
0.0314287
0.0314162
0.0314037
0.0313913
0.0313788
0.0313665
0.0313542
0.031342
0.0313297
0.0313177
0.0313056
0.0312936
0.0312817
0.0312697
0.031258
0.0312463
0.0312347
0.0312231
0.0312117
0.0312004
0.0311889
0.0311778
0.0311665
0.0311556
0.0311445
0.0311339
0.031123
0.0311125
0.031102
0.0310913
0.0310812
0.0310709
0.0310608
0.031051
0.0310408
0.0310314
0.0310215
0.0310117
0.0310026
0.0309923
0.0309833
0.0309734
0.0309631
0.0309542
0.0309429
0.0309332
0.0309234
0.0309111
0.0309028
0.03089
0.030879
0.0308694
0.0308535
0.0308447
0.0308292
0.0308219
0.0308249
0.0308231
0.0308172
0.0308107
0.0308022
0.0307939
0.0307849
0.0307758
0.0307666
0.0307567
0.0307475
0.0307374
0.0307277
0.030717
0.0307094
0.0306978
0.0306905
0.0306753
0.0306791
0.0306644
0.030667
0.0306662
0.0306604
0.0306541
0.0306462
0.0306385
0.0306291
0.030621
0.0306121
0.0306033
0.0305949
0.0305847
0.030574
0.0305672
0.0305522
0.0305556
0.0305415
0.0305447
0.0305442
0.0305376
0.030533
0.0305235
0.0305162
0.0305051
0.0304961
0.0304875
0.030483
0.0304691
0.0304744
0.0304613
0.0304649
0.0304643
0.0304599
0.030453
0.0304461
0.0304394
0.0304296
0.0304191
0.0304121
0.0304037
0.0303891
0.0303827
0.0303804
0.030382
0.0303808
0.0303749
0.0303682
0.0303613
0.0303541
0.0303476
0.0303397
0.0303252
0.0303189
0.030313
0.0303077
0.0303135
0.0303145
0.0303099
0.0303055
0.0302981
0.0302911
0.0302834
0.0302768
0.0302709
0.0302573
0.0302606
0.0302486
0.0302527
0.030253
0.0302483
0.0302443
0.0302356
0.0302286
0.0302213
0.0302175
0.0302052
0.0302099
0.0301983
0.0302013
0.0301999
0.030195
0.0301901
0.0301819
0.0301744
0.0301701
0.0301576
0.030155
0.0301488
0.0301537
0.0301542
0.0301513
0.0301459
0.0301391
0.0301334
0.0301226
0.0301161
0.0301096
0.0301075
0.0301008
0.0301039
0.0301069
0.0301047
0.0301003
0.0300952
0.0300903
0.030082
0.0300776
0.0300648
0.0300593
0.0300536
0.0300611
0.03005
0.0300543
0.0300571
0.0300557
0.0300516
0.0300468
0.0300382
0.0300292
0.0300269
0.0300167
0.0300138
0.0300113
0.0300001
0.0299956
0.0299906
0.0299861
0.0300002
0.0299895
0.0299981
0.0300013
0.0300001
0.0299964
0.0299926
0.0299884
0.0299837
0.0299791
0.0299739
0.0299684
0.0299622
0.0299577
0.0299516
0.0299436
0.0299399
0.0299274
0.0299219
0.0299234
0.0299198
0.0299182
0.0299075
0.029903
0.0298983
0.0299073
0.0298972
0.0299036
0.0299065
0.0299055
0.0299025
0.0298999
0.029896
0.0298906
0.0298857
0.02988
0.0298738
0.029868
0.0298621
0.0298572
0.0298526
0.0298498
0.0298454
0.0298437
0.029834
0.0298298
0.0298255
0.0298223
0.0298181
0.0512264
0.0509115
0.0505349
0.0501162
0.0496761
0.0492167
0.0487502
0.0482748
0.0478007
0.0473265
0.0468562
0.0463928
0.045937
0.04549
0.0450529
0.0446265
0.0442115
0.0438082
0.0434172
0.0430385
0.0426723
0.0423188
0.0419777
0.0416492
0.0413329
0.0410288
0.0407366
0.0404562
0.040187
0.0399291
0.0396818
0.0394451
0.0392188
0.0390023
0.0387954
0.0385977
0.0384087
0.0382282
0.0380558
0.0378912
0.0377339
0.0375837
0.0374403
0.0373033
0.0371725
0.0370475
0.0369282
0.0368141
0.0367051
0.036601
0.0365014
0.0364062
0.0363151
0.0362279
0.0361444
0.0360645
0.035988
0.0359146
0.0358443
0.0357768
0.035712
0.0356498
0.0355901
0.0355326
0.0354774
0.0354242
0.035373
0.0353236
0.0352761
0.0352302
0.0351858
0.035143
0.0351016
0.0350616
0.0350228
0.0349853
0.0349489
0.0349136
0.0348793
0.0348461
0.0348137
0.0347823
0.0347517
0.0347219
0.0346928
0.0346647
0.0346369
0.0346102
0.0345837
0.0345583
0.034533
0.0345089
0.0344839
0.0344582
0.0344317
0.0344047
0.0343772
0.0343493
0.0343211
0.0342925
0.0342638
0.034235
0.034206
0.034177
0.034148
0.0341189
0.03409
0.0340611
0.0340323
0.0340037
0.0339752
0.0339469
0.0339188
0.0338909
0.0338632
0.0338357
0.0338085
0.0337815
0.0337547
0.0337282
0.033702
0.033676
0.0336503
0.0336249
0.0335997
0.0335747
0.0335501
0.0335256
0.0335014
0.0334775
0.0334537
0.0334302
0.0334069
0.0333838
0.0333609
0.0333382
0.0333156
0.0332933
0.0332711
0.0332491
0.0332272
0.0332056
0.0331841
0.0331628
0.0331418
0.033121
0.0331004
0.03308
0.0330598
0.03304
0.0330204
0.0330012
0.0329823
0.0329639
0.0329458
0.0329282
0.032911
0.0328943
0.0328781
0.0328624
0.0328473
0.0328326
0.0328186
0.0328051
0.0327921
0.0327796
0.0327677
0.0327563
0.0327454
0.0327349
0.0327248
0.032715
0.0327055
0.0326962
0.0326871
0.0326781
0.0326692
0.0326602
0.0326513
0.0326425
0.0326337
0.0326249
0.0326165
0.0326076
0.0325989
0.0325901
0.0325816
0.0325733
0.0325648
0.0325566
0.0325488
0.0325414
0.0325342
0.0325272
0.0325202
0.0325135
0.0325069
0.0325003
0.0324942
0.0324879
0.0324818
0.0324757
0.0324696
0.0324641
0.0324583
0.0324529
0.0324476
0.0324423
0.0324378
0.0324338
0.0324298
0.0324256
0.0324212
0.0324169
0.0324123
0.0324076
0.0324027
0.0323984
0.032394
0.0323896
0.0323849
0.0323797
0.0323743
0.0323694
0.0323643
0.0323589
0.032353
0.0323469
0.0323406
0.0323343
0.0323278
0.0323209
0.0323145
0.0323083
0.0323022
0.0322956
0.0322888
0.0322816
0.0322743
0.032267
0.0322597
0.032252
0.0322443
0.0322368
0.0322294
0.0322216
0.0322136
0.0322062
0.0321988
0.032191
0.0321831
0.0321754
0.0321677
0.0321596
0.0321516
0.0321434
0.0321353
0.0321271
0.0321187
0.0321106
0.0321022
0.032094
0.0320856
0.0320773
0.0320689
0.0320605
0.032052
0.0320434
0.0320349
0.0320263
0.0320176
0.0320089
0.0320001
0.0319913
0.0319826
0.0319738
0.031965
0.0319561
0.0319474
0.0319386
0.0319299
0.0319213
0.0319126
0.031904
0.0318954
0.0318868
0.0318783
0.0318699
0.0318616
0.0318533
0.0318452
0.0318371
0.0318292
0.0318214
0.0318136
0.031806
0.0317984
0.0317909
0.0317835
0.0317761
0.0317688
0.0317616
0.0317543
0.0317471
0.0317399
0.0317326
0.0317254
0.0317181
0.0317109
0.0317035
0.0316962
0.0316887
0.0316813
0.0316738
0.0316664
0.0316588
0.0316514
0.0316438
0.0316364
0.0316287
0.0316213
0.0316136
0.0316062
0.0315985
0.0315911
0.0315834
0.031576
0.0315683
0.0315609
0.0315532
0.0315459
0.0315383
0.031531
0.0315234
0.0315162
0.0315087
0.0315015
0.0314941
0.0314869
0.0314797
0.0314728
0.0314657
0.0314591
0.0314523
0.0314459
0.0314392
0.031433
0.0314263
0.0314201
0.0314136
0.0314071
0.0314007
0.031394
0.0313876
0.0313807
0.0313743
0.0313674
0.0313609
0.0313543
0.0313477
0.0313414
0.0313349
0.0313285
0.0313227
0.0313161
0.0313107
0.0313047
0.031299
0.0312924
0.0312863
0.0312804
0.0312746
0.0312698
0.0312646
0.0312592
0.031255
0.0312491
0.0312417
0.0312357
0.0312307
0.0312276
0.0312214
0.0312182
0.0312164
0.0312077
0.0312047
0.031202
0.0312127
0.0312066
0.0312118
0.031214
0.031211
0.0312058
0.0311991
0.0311929
0.0311861
0.0311807
0.0311736
0.0311685
0.0311603
0.0311559
0.0311455
0.0311419
0.0311381
0.0311458
0.0311391
0.0311394
0.0311455
0.0311435
0.0311409
0.0311316
0.0311251
0.0311187
0.0311155
0.0311067
0.0311032
0.0311068
0.0311087
0.0311066
0.0311034
0.0310967
0.0310917
0.031084
0.0310804
0.0310715
0.0310687
0.0310658
0.0310679
0.0310779
0.0310711
0.0310745
0.0310757
0.0310719
0.0310669
0.0310641
0.0310516
0.0310466
0.0310415
0.031037
0.0310321
0.0310283
0.0310243
0.0310295
0.0310227
0.0310236
0.0310251
0.0310165
0.0310136
0.0310104
0.0310174
0.0310125
0.0310162
0.0310203
0.0310167
0.0310121
0.0310078
0.030997
0.0309919
0.0309865
0.0309823
0.0309804
0.0309829
0.0309825
0.0309801
0.0309759
0.0309728
0.03097
0.0309688
0.0309629
0.0309605
0.0309566
0.0309524
0.0309492
0.0309456
0.030943
0.0309397
0.0309365
0.0309356
0.0309268
0.0309243
0.0309294
0.0309326
0.0309242
0.0309293
0.0309224
0.0309183
0.0309236
0.0309178
0.0309217
0.0309211
0.0309213
0.0309133
0.030919
0.0309144
0.0309113
0.0309096
0.0309154
0.0309191
0.0309233
0.0309223
0.0309204
0.0309162
0.0309118
0.0309066
0.0309015
0.0308957
0.0308935
0.0308837
0.0308906
0.0308829
0.0308849
0.0308905
0.0308917
0.0308894
0.0308869
0.0308785
0.0308714
0.0308691
0.0308611
0.0308586
0.0308569
0.0308475
0.0308442
0.0308414
0.0308521
0.0308466
0.0308528
0.0308563
0.0308561
0.0308549
0.0308493
0.030846
0.0308361
0.0308321
0.030828
0.0308328
0.0308257
0.0308273
0.0308266
0.0308259
0.0308185
0.0308224
0.0308177
0.0308146
0.0308157
0.0308146
0.0308123
0.0308094
0.0308086
0.0308006
0.030806
0.0308006
0.0308025
0.0308047
0.030797
0.0307943
0.0307914
0.0308015
0.0307957
0.0308018
0.0308045
0.0308043
0.0308013
0.0307989
0.0307936
0.0307883
0.0307821
0.0307785
0.030768
0.0307646
0.0307612
0.0307589
0.0307667
0.0307632
0.0307646
0.0307551
0.030752
0.0307486
0.0307467
0.030755
0.030748
0.0307491
0.0307498
0.0307413
0.0307381
0.0307407
0.0307429
0.0307346
0.0307318
0.0307285
0.0307267
0.0307322
0.0307336
0.0307323
0.0307317
0.0307233
0.0307198
0.0307211
0.0307226
0.0307139
0.0512185
0.0509605
0.0506781
0.0503698
0.0500393
0.0496891
0.0493229
0.0489424
0.0485504
0.0481488
0.0477394
0.047324
0.0469042
0.0464813
0.0460567
0.0456314
0.0452065
0.0447831
0.0443618
0.0439435
0.0435289
0.0431185
0.0427129
0.042313
0.041919
0.0415313
0.0411501
0.0407756
0.0404082
0.0400476
0.0396945
0.0393481
0.0390085
0.0386758
0.03835
0.0380312
0.0377194
0.0374147
0.0371171
0.0368263
0.0365425
0.0362656
0.0359954
0.0357319
0.0354749
0.0352244
0.0349803
0.0347424
0.0345106
0.0342848
0.0340649
0.0338508
0.0336422
0.0334392
0.0332415
0.033049
0.0328616
0.0326793
0.0325018
0.032329
0.0321608
0.0319971
0.0318378
0.0316828
0.0315319
0.031385
0.031242
0.0311029
0.0309675
0.0308356
0.0307073
0.0305825
0.0304609
0.0303426
0.0302274
0.0301153
0.0300062
0.0299
0.0297965
0.0296958
0.0295977
0.0295022
0.0294092
0.0293187
0.0292305
0.0291447
0.0290612
0.0289798
0.0289005
0.0288234
0.0287481
0.0286749
0.0286035
0.0285337
0.0284654
0.0283987
0.0283334
0.0282694
0.0282067
0.0281453
0.028085
0.0280259
0.0279679
0.027911
0.0278552
0.0278004
0.0277465
0.0276937
0.0276418
0.0275908
0.0275408
0.0274916
0.0274433
0.0273959
0.0273493
0.0273036
0.0272587
0.0272146
0.0271713
0.0271288
0.0270871
0.0270461
0.0270059
0.0269664
0.0269277
0.0268896
0.0268522
0.0268155
0.0267795
0.0267441
0.0267093
0.0266751
0.0266415
0.0266085
0.026576
0.026544
0.0265126
0.0264817
0.0264513
0.0264213
0.0263919
0.0263629
0.0263344
0.0263063
0.0262787
0.0262516
0.0262251
0.026199
0.0261736
0.0261487
0.0261244
0.0261007
0.0260776
0.0260552
0.0260335
0.0260125
0.0259922
0.0259726
0.0259539
0.0259359
0.0259187
0.0259024
0.025887
0.0258724
0.0258586
0.0258457
0.0258337
0.0258225
0.0258121
0.0258024
0.0257934
0.025785
0.0257772
0.0257699
0.0257631
0.0257565
0.0257506
0.0257443
0.0257394
0.025734
0.0257287
0.0257242
0.0257192
0.0257107
0.0257042
0.0256982
0.0256921
0.0256874
0.0256791
0.0256672
0.0256626
0.0256634
0.0256655
0.0256588
0.0256577
0.0256571
0.0256502
0.0256479
0.0256532
0.0256475
0.0256457
0.0256439
0.0256434
0.0256499
0.0256453
0.0256442
0.0256433
0.0256485
0.025666
0.0256669
0.0256758
0.0256731
0.0256727
0.0256731
0.0256743
0.0256857
0.0256994
0.0257193
0.0257263
0.0257282
0.0257278
0.0257298
0.0257425
0.025764
0.0257674
0.0257781
0.0257778
0.0257841
0.0257963
0.0257968
0.0257965
0.0258001
0.0258152
0.025829
0.0258372
0.0258377
0.0258412
0.0258391
0.0258473
0.0258485
0.0258564
0.0258553
0.0258608
0.0258716
0.0258704
0.0258699
0.0258738
0.0258884
0.0258871
0.0258861
0.0258871
0.0258971
0.0258968
0.025897
0.0259037
0.0259058
0.0259052
0.0259055
0.0259074
0.0259083
0.0259091
0.0259149
0.0259144
0.0259151
0.0259188
0.0259218
0.0259206
0.0259228
0.0259215
0.0259224
0.0259226
0.0259226
0.0259206
0.0259201
0.0259217
0.0259206
0.0259196
0.02592
0.0259198
0.0259197
0.0259237
0.0259295
0.0259274
0.0259293
0.0259301
0.0259298
0.025929
0.025928
0.025927
0.0259261
0.0259252
0.0259244
0.0259238
0.0259231
0.0259226
0.0259221
0.0259217
0.0259212
0.025921
0.0259207
0.0259206
0.0259193
0.0259195
0.0259194
0.0259195
0.0259195
0.0259195
0.0259193
0.0259191
0.0259188
0.0259184
0.025918
0.0259176
0.025917
0.0259164
0.0259157
0.0259151
0.0259144
0.0259137
0.0259129
0.0259121
0.0259113
0.0259107
0.0259099
0.025909
0.025908
0.0259071
0.0259062
0.0259052
0.025904
0.025903
0.0259019
0.0259008
0.0258997
0.0258986
0.0258975
0.0258964
0.0258953
0.0258941
0.0258931
0.025892
0.025891
0.0258901
0.0258891
0.0258882
0.0258873
0.0258865
0.0258856
0.0258849
0.0258839
0.025883
0.0258821
0.0258809
0.02588
0.0258788
0.025878
0.025877
0.025876
0.0258752
0.0258744
0.0258735
0.0258728
0.0258715
0.0258704
0.0258698
0.0258684
0.0258689
0.0258691
0.0258714
0.0258734
0.0258778
0.0258785
0.0258816
0.025881
0.0258835
0.0258868
0.0258945
0.0258941
0.0258936
0.0258968
0.0259037
0.025911
0.0259136
0.0259204
0.0259198
0.0259239
0.025931
0.0259364
0.0259365
0.0259362
0.0259398
0.0259457
0.0259443
0.0259429
0.0259445
0.025944
0.0259442
0.0259445
0.0259467
0.0259518
0.0259529
0.0259573
0.0259662
0.025965
0.0259711
0.0259715
0.0259777
0.0259766
0.0259758
0.0259804
0.0259847
0.0259865
0.0259905
0.0260009
0.0260092
0.0260075
0.0260128
0.0260124
0.0260153
0.0260178
0.0260159
0.0260187
0.0260252
0.026034
0.026046
0.0260564
0.0260557
0.0260543
0.0260549
0.0260556
0.0260634
0.0260727
0.0260809
0.0260841
0.0260845
0.0260852
0.0260928
0.0260998
0.0260958
0.0260998
0.0260948
0.0260931
0.0260979
0.026103
0.026101
0.0261084
0.0261178
0.026124
0.0261278
0.0261315
0.0261346
0.0261319
0.0261301
0.0261343
0.0261475
0.0261552
0.0261596
0.0261578
0.026158
0.026166
0.0261636
0.02617
0.0261844
0.026186
0.0261863
0.0261951
0.0262045
0.0262101
0.0262156
0.0262131
0.0262167
0.0262121
0.026215
0.0262226
0.0262253
0.0262361
0.0262329
0.0262333
0.026234
0.0262347
0.0262373
0.0262399
0.0262438
0.026258
0.0262701
0.0262666
0.0262689
0.0262715
0.0262739
0.0262755
0.0262854
0.0262928
0.0262956
0.0262996
0.0262989
0.0263048
0.0263098
0.0263141
0.026319
0.0263204
0.0263213
0.0263214
0.0263218
0.0263228
0.0263237
0.0263245
0.0263271
0.0263292
0.0263318
0.0263356
0.0263525
0.0263503
0.0263513
0.0263529
0.026364
0.0263671
0.0263654
0.0263637
0.0263629
0.0263686
0.0263654
0.0263657
0.0263665
0.0263778
0.0263893
0.02639
0.0263979
0.0264077
0.0264098
0.0264092
0.0264145
0.0264128
0.0264171
0.0264141
0.0264126
0.0264114
0.026421
0.0264218
0.026432
0.0264407
0.0264378
0.0264425
0.0264487
0.0264507
0.0264472
0.0264442
0.0264426
0.0264472
0.0264428
0.0264481
0.0264526
0.0264564
0.0264603
0.0264572
0.0264554
0.0264593
0.0264558
0.0264563
0.0264647
0.0264616
0.0264619
0.0264685
0.0264736
0.0264705
0.0264687
0.0264682
0.0264678
0.0264679
0.026468
0.0264764
0.0264847
0.0264922
0.0264891
0.0264876
0.0264862
0.0264854
0.0264941
0.0264924
0.0264984
0.026496
0.0264952
0.0264947
0.0264944
0.0264941
0.0264936
0.0264943
0.0264951
0.0264969
0.0265064
0.0265145
0.0265109
0.0265181
0.0265167
0.0265228
0.0265279
0.0265228
0.0265209
0.0265235
0.0265268
0.0265213
0.0512159
0.0509716
0.0507222
0.0504638
0.0501954
0.0499167
0.0496282
0.0493303
0.0490238
0.0487094
0.0483881
0.0480605
0.0477274
0.0473897
0.047048
0.046703
0.0463554
0.0460058
0.0456548
0.0453029
0.0449505
0.0445983
0.0442466
0.0438954
0.0435453
0.0431966
0.0428497
0.0425049
0.0421625
0.0418228
0.0414858
0.0411524
0.0408226
0.0404964
0.0401741
0.0398556
0.0395411
0.0392307
0.0389243
0.0386221
0.0383241
0.0380303
0.0377409
0.0374557
0.0371749
0.0368984
0.0366262
0.0363584
0.0360949
0.0358357
0.0355808
0.0353301
0.0350837
0.0348415
0.0346034
0.0343695
0.0341397
0.0339138
0.033692
0.0334741
0.0332602
0.03305
0.0328437
0.0326411
0.0324421
0.0322468
0.0320551
0.0318668
0.0316822
0.031501
0.0313232
0.0311488
0.0309777
0.0308098
0.0306451
0.0304834
0.0303248
0.0301692
0.0300165
0.0298667
0.0297196
0.0295754
0.0294338
0.0292949
0.0291584
0.0290243
0.0288927
0.0287634
0.0286364
0.0285118
0.0283894
0.0282693
0.0281513
0.0280356
0.0279219
0.0278103
0.0277007
0.0275931
0.0274873
0.0273835
0.0272814
0.0271812
0.0270826
0.0269858
0.0268906
0.026797
0.026705
0.0266146
0.0265256
0.0264382
0.0263522
0.0262676
0.0261844
0.0261025
0.026022
0.0259428
0.0258649
0.0257883
0.0257129
0.0256388
0.0255658
0.025494
0.0254234
0.0253539
0.0252855
0.0252182
0.025152
0.0250868
0.0250226
0.0249595
0.0248973
0.0248361
0.0247758
0.0247165
0.024658
0.0246004
0.0245437
0.0244878
0.0244327
0.0243784
0.0243249
0.0242721
0.0242201
0.0241688
0.0241183
0.0240684
0.0240193
0.023971
0.0239233
0.0238764
0.0238303
0.0237849
0.0237404
0.0236966
0.0236537
0.0236117
0.0235705
0.0235302
0.0234909
0.0234525
0.0234151
0.0233786
0.0233432
0.0233088
0.0232755
0.0232432
0.023212
0.0231818
0.0231527
0.0231246
0.0230975
0.0230713
0.0230461
0.0230217
0.0229982
0.0229754
0.0229536
0.0229323
0.0229121
0.0228923
0.0228737
0.0228554
0.0228386
0.0228213
0.0228055
0.02279
0.0227758
0.0227619
0.0227489
0.0227352
0.0227236
0.0227109
0.0226984
0.0226867
0.0226731
0.0226611
0.0226477
0.0226364
0.022626
0.0226153
0.0226037
0.0225929
0.0225842
0.02257
0.0225558
0.0225452
0.0225382
0.0225323
0.0225225
0.0225181
0.0225124
0.0225093
0.0224985
0.022507
0.0224993
0.0225045
0.0225104
0.0225044
0.0225097
0.0225065
0.0225062
0.0225188
0.0225156
0.0225322
0.0225344
0.0225525
0.0225507
0.0225493
0.0225509
0.0225659
0.0225613
0.0225614
0.0225621
0.0225642
0.0225837
0.0225829
0.0225828
0.022584
0.0225943
0.0226037
0.0226
0.0226052
0.0226022
0.0226036
0.0226051
0.0226182
0.0226236
0.0226264
0.0226274
0.0226277
0.0226308
0.0226511
0.0226475
0.0226598
0.0226813
0.0226768
0.0226732
0.0226827
0.0226956
0.0226874
0.022693
0.0226969
0.0226979
0.0226978
0.0226973
0.0226965
0.0226955
0.0226945
0.0226935
0.0226924
0.0226912
0.0226902
0.0226888
0.0226878
0.0226866
0.0226855
0.0226844
0.0226831
0.022682
0.0226809
0.0226797
0.0226789
0.0226777
0.0226766
0.0226755
0.0226744
0.0226733
0.0226723
0.0226713
0.0226704
0.0226697
0.022669
0.0226684
0.022668
0.0226672
0.0226683
0.0226629
0.0226605
0.0226625
0.0226633
0.0226584
0.0226564
0.0226547
0.0226577
0.0226615
0.0226643
0.022666
0.0226671
0.0226678
0.0226683
0.0226687
0.0226687
0.02267
0.0226664
0.0226646
0.0226635
0.0226657
0.0226659
0.0226662
0.0226632
0.0226646
0.0226669
0.0226696
0.0226675
0.0226662
0.0226681
0.0226698
0.0226715
0.0226693
0.0226704
0.0226711
0.0226714
0.0226715
0.0226715
0.0226714
0.0226713
0.0226712
0.0226712
0.0226711
0.022671
0.022671
0.0226709
0.0226709
0.0226709
0.0226709
0.0226709
0.0226709
0.022671
0.0226709
0.0226709
0.0226707
0.0226705
0.0226703
0.0226699
0.0226698
0.0226692
0.0226692
0.0226701
0.02267
0.0226707
0.0226717
0.0226729
0.0226752
0.0226762
0.0226771
0.0226783
0.0226804
0.0226831
0.0226864
0.0226902
0.0226945
0.022699
0.022704
0.0227089
0.0227141
0.0227195
0.0227256
0.0227318
0.0227381
0.0227446
0.0227513
0.0227589
0.0227655
0.0227735
0.0227791
0.022786
0.0227939
0.0227931
0.0227922
0.0227921
0.0227982
0.0228003
0.0228009
0.0228012
0.0228042
0.022812
0.0228196
0.0228305
0.0228412
0.0228497
0.0228564
0.0228558
0.0228594
0.0228576
0.0228611
0.0228668
0.0228688
0.0228691
0.0228705
0.0228784
0.0228868
0.0228987
0.0229105
0.022919
0.0229185
0.0229256
0.0229303
0.0229388
0.022938
0.0229436
0.0229516
0.0229637
0.0229732
0.0229863
0.0229995
0.0230066
0.0230049
0.0230099
0.0230227
0.0230317
0.0230451
0.0230523
0.0230672
0.0230748
0.0230748
0.0230746
0.0230755
0.0230773
0.0230785
0.0230809
0.0230826
0.0230853
0.0230879
0.0230908
0.0231063
0.023134
0.0231343
0.0231341
0.0231445
0.0231487
0.0231614
0.0231614
0.0231608
0.0231671
0.0231805
0.0231974
0.0232087
0.0232364
0.0232361
0.0232354
0.0232367
0.0232441
0.0232542
0.0232812
0.0232933
0.023304
0.023319
0.0233352
0.0233343
0.0233324
0.0233324
0.0233327
0.0233352
0.0233528
0.023368
0.0233656
0.0233767
0.0233924
0.0234034
0.0233999
0.0234087
0.0234189
0.0234404
0.0234415
0.0234515
0.0234496
0.0234606
0.0234747
0.0234942
0.0234991
0.0234997
0.0234999
0.0235111
0.0235225
0.0235304
0.0235329
0.0235389
0.0235624
0.0235683
0.0235697
0.0235691
0.023569
0.0235708
0.0235734
0.0235765
0.0235801
0.0235857
0.0235985
0.0236214
0.0236272
0.0236284
0.0236287
0.0236393
0.0236544
0.0236541
0.0236627
0.0236605
0.0236668
0.023663
0.0236696
0.0236801
0.0236957
0.0237074
0.0237231
0.02374
0.0237554
0.0237532
0.0237634
0.0237606
0.0237594
0.0237689
0.0237833
0.0237822
0.0237898
0.0237849
0.0237831
0.0237828
0.0237887
0.0238057
0.0238184
0.0238192
0.0238279
0.0238246
0.0238232
0.0238233
0.0238233
0.0238243
0.0238259
0.023835
0.0238571
0.0238556
0.0238652
0.0238785
0.023874
0.0238717
0.0238783
0.0238837
0.0238896
0.0238865
0.0238848
0.0238937
0.023903
0.0239041
0.0239041
0.0239041
0.0239056
0.0239199
0.0239322
0.023931
0.0239355
0.0239398
0.0239397
0.0239518
0.0239515
0.0239615
0.0239634
0.0239755
0.0239748
0.0239809
0.0239909
0.0240013
0.0239994
0.0240034
0.0240065
0.0240007
0.0239988
0.0239972
0.0239995
0.0240067
0.0240159
0.0240123
0.0240118
0.024018
0.0240347
0.0240327
0.0240322
0.0240326
0.0240334
0.0240352
0.024036
0.0512152
0.0509725
0.0507306
0.0504876
0.0502423
0.0499935
0.0497406
0.0494831
0.0492209
0.048954
0.0486827
0.0484072
0.0481276
0.0478444
0.0475579
0.0472684
0.0469762
0.0466818
0.0463854
0.0460873
0.0457879
0.0454875
0.0451863
0.0448847
0.0445828
0.0442809
0.0439793
0.0436781
0.0433775
0.0430778
0.0427792
0.0424818
0.0421858
0.0418915
0.041599
0.0413083
0.0410197
0.0407332
0.040449
0.040167
0.0398875
0.0396104
0.0393359
0.039064
0.0387947
0.0385281
0.0382643
0.0380033
0.0377451
0.0374897
0.0372371
0.0369875
0.0367407
0.0364969
0.036256
0.0360179
0.0357828
0.0355506
0.0353213
0.0350949
0.0348715
0.0346508
0.0344331
0.0342182
0.0340061
0.0337969
0.0335904
0.0333868
0.0331858
0.0329874
0.0327917
0.0325986
0.0324081
0.0322202
0.0320349
0.0318522
0.031672
0.0314943
0.0313191
0.0311464
0.030976
0.0308081
0.0306426
0.0304794
0.0303186
0.0301603
0.0300042
0.0298504
0.0296988
0.0295494
0.0294022
0.0292571
0.0291141
0.0289731
0.0288342
0.0286973
0.0285623
0.0284292
0.0282981
0.0281688
0.0280414
0.0279158
0.0277919
0.0276698
0.0275495
0.0274308
0.0273137
0.0271983
0.0270845
0.0269723
0.0268617
0.0267525
0.0266449
0.0265388
0.0264341
0.026331
0.0262292
0.0261288
0.0260298
0.0259322
0.0258359
0.0257409
0.0256471
0.0255547
0.0254634
0.0253734
0.0252846
0.025197
0.0251105
0.0250251
0.0249409
0.0248578
0.0247757
0.0246947
0.0246146
0.0245354
0.0244573
0.0243801
0.0243038
0.0242284
0.0241539
0.0240803
0.0240075
0.0239356
0.0238646
0.0237944
0.023725
0.0236565
0.0235887
0.0235218
0.0234558
0.0233905
0.0233261
0.0232626
0.0232
0.0231382
0.0230773
0.0230173
0.0229583
0.0229003
0.0228432
0.0227871
0.022732
0.022678
0.022625
0.0225731
0.0225223
0.0224726
0.022424
0.0223764
0.02233
0.0222847
0.0222404
0.0221971
0.0221549
0.0221138
0.0220736
0.0220345
0.0219965
0.0219594
0.0219234
0.0218884
0.0218546
0.0218217
0.02179
0.0217592
0.0217296
0.0217009
0.0216734
0.0216466
0.0216209
0.0215959
0.0215714
0.0215478
0.0215244
0.0215018
0.0214796
0.0214583
0.0214381
0.0214185
0.0213995
0.0213813
0.0213641
0.0213469
0.0213304
0.0213147
0.0213002
0.0212868
0.0212741
0.0212617
0.0212508
0.0212404
0.0212305
0.0212223
0.021215
0.0212071
0.0212009
0.0211935
0.0211875
0.0211808
0.0211748
0.0211706
0.0211646
0.0211609
0.0211564
0.0211536
0.0211495
0.0211447
0.021139
0.0211347
0.0211287
0.0211239
0.0211187
0.021114
0.02111
0.0211062
0.0211009
0.0210962
0.0210909
0.0210865
0.0210805
0.0210759
0.0210699
0.0210651
0.0210597
0.0210555
0.0210509
0.0210455
0.0210408
0.0210353
0.0210294
0.021025
0.0210191
0.0210133
0.0210086
0.0210032
0.0209969
0.0209907
0.0209852
0.0209787
0.0209724
0.0209662
0.0209599
0.0209536
0.0209472
0.0209409
0.0209345
0.0209282
0.020922
0.0209158
0.0209096
0.0209035
0.0208974
0.0208914
0.0208854
0.0208794
0.0208735
0.0208677
0.0208619
0.0208562
0.0208506
0.020845
0.0208395
0.0208341
0.0208287
0.0208235
0.0208184
0.0208133
0.0208084
0.0208036
0.0207988
0.0207942
0.0207897
0.0207854
0.020781
0.020777
0.0207728
0.0207687
0.0207649
0.0207611
0.0207572
0.0207536
0.0207498
0.0207463
0.0207432
0.0207402
0.0207373
0.0207343
0.0207314
0.0207284
0.0207256
0.0207227
0.02072
0.0207171
0.0207143
0.0207116
0.020709
0.0207063
0.0207039
0.0207012
0.0206987
0.0206963
0.0206941
0.0206919
0.0206894
0.0206871
0.0206847
0.0206825
0.0206801
0.0206777
0.0206753
0.020673
0.0206706
0.0206682
0.0206659
0.0206636
0.0206613
0.020659
0.0206568
0.0206546
0.0206524
0.0206503
0.0206482
0.0206462
0.0206441
0.0206422
0.0206402
0.0206383
0.0206363
0.0206345
0.0206326
0.0206307
0.0206289
0.0206271
0.0206253
0.0206238
0.0206222
0.0206208
0.0206194
0.0206181
0.0206167
0.0206154
0.0206143
0.020613
0.020612
0.0206112
0.0206093
0.0206083
0.020607
0.0206067
0.0206048
0.0206041
0.0206071
0.0206088
0.0206116
0.0206152
0.02062
0.0206241
0.0206299
0.0206337
0.020641
0.0206412
0.0206412
0.0206413
0.0206443
0.0206492
0.0206582
0.0206593
0.0206651
0.0206635
0.020664
0.0206646
0.0206706
0.0206702
0.0206746
0.0206824
0.0206896
0.0207002
0.0207094
0.0207103
0.020712
0.020718
0.0207175
0.0207171
0.0207211
0.0207308
0.0207366
0.0207354
0.0207348
0.0207413
0.0207481
0.0207587
0.020768
0.0207705
0.0207707
0.0207775
0.0207886
0.0207892
0.0207887
0.020795
0.0208006
0.0208159
0.0208211
0.0208385
0.0208389
0.020839
0.0208469
0.0208598
0.0208727
0.0208858
0.0209024
0.0209118
0.0209134
0.0209137
0.0209232
0.0209424
0.0209395
0.0209459
0.0209427
0.0209537
0.0209511
0.0209521
0.0209533
0.0209671
0.0209831
0.0210047
0.0210031
0.0210023
0.021014
0.0210163
0.0210307
0.0210288
0.0210297
0.021031
0.0210341
0.0210493
0.0210694
0.0210903
0.0211162
0.0211323
0.0211461
0.021157
0.0211734
0.0211876
0.0212095
0.0212294
0.0212307
0.021231
0.0212296
0.0212315
0.0212341
0.0212534
0.0212777
0.0212753
0.0212752
0.0212836
0.0213054
0.0213362
0.0213368
0.0213352
0.0213468
0.0213703
0.0213866
0.0213812
0.0213901
0.0214076
0.0214244
0.0214524
0.0214708
0.0214821
0.0214764
0.0214862
0.021499
0.0215286
0.0215326
0.0215467
0.0215424
0.0215512
0.0215769
0.021576
0.0215738
0.0215746
0.021577
0.0215956
0.0215913
0.0215912
0.0216027
0.0216036
0.021618
0.0216451
0.0216592
0.0216575
0.0216645
0.021674
0.0216733
0.0216831
0.0216985
0.0216952
0.0216942
0.0217043
0.0217198
0.0217386
0.0217565
0.021774
0.0217997
0.021814
0.0218105
0.0218094
0.0218099
0.0218116
0.0218293
0.0218376
0.0218513
0.0218505
0.0218627
0.0218575
0.0218674
0.021886
0.0219089
0.0219115
0.0219233
0.0219187
0.0219165
0.0219152
0.0219155
0.0219157
0.0219177
0.0219337
0.0219485
0.0219521
0.0219518
0.0219522
0.0219559
0.0219584
0.0219661
0.0219738
0.0219867
0.0220018
0.0220038
0.0220065
0.0220284
0.0220298
0.0220298