/*--------------------------------*- C++ -*----------------------------------*\
  =========                 |
  \\      /  F ield         | OpenFOAM: The Open Source CFD Toolbox
   \\    /   O peration     | Website:  https://openfoam.org
    \\  /    A nd           | Version:  7
     \\/     M anipulation  |
\*---------------------------------------------------------------------------*/
FoamFile
{
    version     2.0;
    format      ascii;
    class       volScalarField;
    location    "167";
    object      nut;
}
// * * * * * * * * * * * * * * * * * * * * * * * * * * * * * * * * * * * * * //

dimensions      [0 2 -1 0 0 0 0];

internalField   nonuniform List<scalar> 
36000
(
2.90649e-05
2.98316e-05
3.04915e-05
3.10386e-05
3.15022e-05
3.18595e-05
3.21589e-05
3.23663e-05
3.25445e-05
3.26353e-05
3.27055e-05
3.2744e-05
3.27404e-05
3.27098e-05
3.26564e-05
3.25841e-05
3.24962e-05
3.23956e-05
3.22848e-05
3.21658e-05
3.20407e-05
3.19108e-05
3.17776e-05
3.16423e-05
3.15057e-05
3.13687e-05
3.1232e-05
3.10961e-05
3.09616e-05
3.08287e-05
3.06979e-05
3.05693e-05
3.04432e-05
3.03198e-05
3.01991e-05
3.00812e-05
2.99661e-05
2.9854e-05
2.97448e-05
2.96385e-05
2.95351e-05
2.94346e-05
2.93369e-05
2.92419e-05
2.91497e-05
2.90601e-05
2.89731e-05
2.88886e-05
2.88065e-05
2.87269e-05
2.86495e-05
2.85744e-05
2.85014e-05
2.84306e-05
2.83618e-05
2.82949e-05
2.82299e-05
2.81668e-05
2.81054e-05
2.80458e-05
2.79877e-05
2.79313e-05
2.78764e-05
2.78229e-05
2.77709e-05
2.77203e-05
2.76709e-05
2.76228e-05
2.7576e-05
2.75303e-05
2.74857e-05
2.74423e-05
2.73999e-05
2.73585e-05
2.73181e-05
2.72786e-05
2.72401e-05
2.72024e-05
2.71655e-05
2.71295e-05
2.70943e-05
2.70598e-05
2.7026e-05
2.6993e-05
2.69606e-05
2.69289e-05
2.68979e-05
2.68674e-05
2.68376e-05
2.68083e-05
2.67795e-05
2.67513e-05
2.67236e-05
2.66964e-05
2.66696e-05
2.66433e-05
2.66173e-05
2.65916e-05
2.65661e-05
2.65409e-05
2.65159e-05
2.6491e-05
2.64664e-05
2.64419e-05
2.64175e-05
2.63933e-05
2.63693e-05
2.63453e-05
2.63215e-05
2.62978e-05
2.62743e-05
2.62508e-05
2.62275e-05
2.62044e-05
2.61813e-05
2.61584e-05
2.61357e-05
2.61131e-05
2.60906e-05
2.60683e-05
2.60461e-05
2.6024e-05
2.60021e-05
2.59804e-05
2.59588e-05
2.59374e-05
2.59162e-05
2.5895e-05
2.58741e-05
2.58533e-05
2.58327e-05
2.58122e-05
2.57919e-05
2.57718e-05
2.57518e-05
2.5732e-05
2.57123e-05
2.56928e-05
2.56734e-05
2.56543e-05
2.56352e-05
2.56164e-05
2.55977e-05
2.55791e-05
2.55607e-05
2.55425e-05
2.55245e-05
2.55066e-05
2.54889e-05
2.54714e-05
2.5454e-05
2.54368e-05
2.54198e-05
2.5403e-05
2.53864e-05
2.537e-05
2.53538e-05
2.53377e-05
2.53219e-05
2.53063e-05
2.52909e-05
2.52757e-05
2.52607e-05
2.5246e-05
2.52314e-05
2.52171e-05
2.5203e-05
2.51891e-05
2.51754e-05
2.51619e-05
2.51486e-05
2.51356e-05
2.51227e-05
2.511e-05
2.50975e-05
2.50851e-05
2.50729e-05
2.50609e-05
2.50491e-05
2.50373e-05
2.50258e-05
2.50144e-05
2.50031e-05
2.4992e-05
2.4981e-05
2.49702e-05
2.49595e-05
2.49489e-05
2.49385e-05
2.49282e-05
2.4918e-05
2.4908e-05
2.48982e-05
2.48884e-05
2.48788e-05
2.48693e-05
2.486e-05
2.48508e-05
2.48417e-05
2.48327e-05
2.48239e-05
2.48152e-05
2.48066e-05
2.47981e-05
2.47897e-05
2.47815e-05
2.47733e-05
2.47653e-05
2.47574e-05
2.47496e-05
2.47419e-05
2.47343e-05
2.47267e-05
2.47193e-05
2.47119e-05
2.47046e-05
2.46974e-05
2.46902e-05
2.46831e-05
2.4676e-05
2.4669e-05
2.46621e-05
2.46552e-05
2.46483e-05
2.46415e-05
2.46347e-05
2.4628e-05
2.46213e-05
2.46146e-05
2.4608e-05
2.46014e-05
2.45949e-05
2.45884e-05
2.45819e-05
2.45755e-05
2.45691e-05
2.45627e-05
2.45564e-05
2.45501e-05
2.45438e-05
2.45375e-05
2.45313e-05
2.45251e-05
2.4519e-05
2.45129e-05
2.45068e-05
2.45007e-05
2.44947e-05
2.44887e-05
2.44827e-05
2.44768e-05
2.44709e-05
2.44651e-05
2.44592e-05
2.44534e-05
2.44476e-05
2.44419e-05
2.44362e-05
2.44305e-05
2.44248e-05
2.44191e-05
2.44135e-05
2.44079e-05
2.44024e-05
2.43968e-05
2.43913e-05
2.43858e-05
2.43804e-05
2.43749e-05
2.43695e-05
2.43641e-05
2.43587e-05
2.43534e-05
2.4348e-05
2.43427e-05
2.43374e-05
2.43322e-05
2.43269e-05
2.43217e-05
2.43164e-05
2.43112e-05
2.43061e-05
2.43009e-05
2.42958e-05
2.42907e-05
2.42857e-05
2.42807e-05
2.42757e-05
2.42708e-05
2.42658e-05
2.4261e-05
2.42561e-05
2.42513e-05
2.42466e-05
2.42418e-05
2.42371e-05
2.42325e-05
2.42279e-05
2.42233e-05
2.42187e-05
2.42142e-05
2.42097e-05
2.42053e-05
2.42009e-05
2.41965e-05
2.41921e-05
2.41878e-05
2.41834e-05
2.41791e-05
2.41748e-05
2.41706e-05
2.41663e-05
2.41621e-05
2.41578e-05
2.41536e-05
2.41494e-05
2.41452e-05
2.41411e-05
2.41369e-05
2.41328e-05
2.41287e-05
2.41245e-05
2.41205e-05
2.41164e-05
2.41124e-05
2.41083e-05
2.41043e-05
2.41002e-05
2.40963e-05
2.40923e-05
2.40884e-05
2.40844e-05
2.40805e-05
2.40766e-05
2.40727e-05
2.40688e-05
2.4065e-05
2.40611e-05
2.40574e-05
2.40536e-05
2.40498e-05
2.40461e-05
2.40424e-05
2.40388e-05
2.40352e-05
2.40316e-05
2.40281e-05
2.40246e-05
2.40211e-05
2.40177e-05
2.40142e-05
2.40108e-05
2.40074e-05
2.4004e-05
2.40006e-05
2.39973e-05
2.39939e-05
2.39906e-05
2.39873e-05
2.3984e-05
2.39808e-05
2.39775e-05
2.39743e-05
2.39712e-05
2.3968e-05
2.3965e-05
2.39619e-05
2.39589e-05
2.39558e-05
2.3953e-05
2.39499e-05
2.39472e-05
2.39442e-05
2.39416e-05
2.39387e-05
2.39361e-05
2.39336e-05
2.39308e-05
2.39284e-05
2.39259e-05
2.39234e-05
2.39212e-05
2.39186e-05
2.39166e-05
2.39142e-05
2.39118e-05
2.391e-05
2.39072e-05
2.39053e-05
2.39027e-05
2.38997e-05
2.38979e-05
2.38942e-05
2.38916e-05
2.3889e-05
2.38844e-05
2.38829e-05
2.38779e-05
2.38743e-05
2.38717e-05
2.38641e-05
2.38621e-05
2.38548e-05
2.38539e-05
2.38609e-05
2.38642e-05
2.38642e-05
2.38638e-05
2.38618e-05
2.386e-05
2.38576e-05
2.3855e-05
2.38525e-05
2.38492e-05
2.38466e-05
2.38432e-05
2.384e-05
2.38361e-05
2.38345e-05
2.38299e-05
2.38284e-05
2.38209e-05
2.38281e-05
2.3821e-05
2.38273e-05
2.38308e-05
2.38304e-05
2.38296e-05
2.38276e-05
2.38257e-05
2.38225e-05
2.38201e-05
2.38173e-05
2.38144e-05
2.38119e-05
2.38079e-05
2.38035e-05
2.38021e-05
2.37943e-05
2.38007e-05
2.37936e-05
2.38e-05
2.38034e-05
2.38021e-05
2.38022e-05
2.37985e-05
2.37966e-05
2.37915e-05
2.37882e-05
2.37851e-05
2.37852e-05
2.37779e-05
2.37856e-05
2.3779e-05
2.37854e-05
2.37884e-05
2.37885e-05
2.37866e-05
2.37847e-05
2.3783e-05
2.37788e-05
2.3774e-05
2.37719e-05
2.37688e-05
2.37607e-05
2.37591e-05
2.37607e-05
2.37652e-05
2.37677e-05
2.37664e-05
2.37644e-05
2.37622e-05
2.37598e-05
2.3758e-05
2.37549e-05
2.37467e-05
2.37449e-05
2.37435e-05
2.37425e-05
2.37501e-05
2.3754e-05
2.37534e-05
2.3753e-05
2.37503e-05
2.37478e-05
2.37447e-05
2.37425e-05
2.37409e-05
2.37331e-05
2.37386e-05
2.37322e-05
2.37383e-05
2.37414e-05
2.37406e-05
2.37403e-05
2.37363e-05
2.37336e-05
2.37307e-05
2.37305e-05
2.37236e-05
2.37301e-05
2.37237e-05
2.37288e-05
2.37304e-05
2.37293e-05
2.37281e-05
2.37243e-05
2.37211e-05
2.37203e-05
2.37131e-05
2.37137e-05
2.37114e-05
2.37179e-05
2.37209e-05
2.37212e-05
2.37196e-05
2.37167e-05
2.37147e-05
2.37088e-05
2.37062e-05
2.37035e-05
2.37043e-05
2.37015e-05
2.37065e-05
2.37113e-05
2.3712e-05
2.37109e-05
2.37093e-05
2.37079e-05
2.37037e-05
2.37026e-05
2.36948e-05
2.36929e-05
2.36906e-05
2.36989e-05
2.36924e-05
2.36981e-05
2.37026e-05
2.37038e-05
2.37029e-05
2.37013e-05
2.36967e-05
2.36918e-05
2.36922e-05
2.36864e-05
2.36862e-05
2.36863e-05
2.36796e-05
2.36782e-05
2.36764e-05
2.36749e-05
2.36882e-05
2.36818e-05
2.36907e-05
2.36953e-05
2.36964e-05
2.36956e-05
2.36946e-05
2.36933e-05
2.36917e-05
2.369e-05
2.36879e-05
2.36856e-05
2.36827e-05
2.36811e-05
2.36783e-05
2.36739e-05
2.36729e-05
2.3665e-05
2.36626e-05
2.36657e-05
2.36647e-05
2.36654e-05
2.36588e-05
2.36572e-05
2.36553e-05
2.36644e-05
2.36583e-05
2.36652e-05
2.36694e-05
2.36704e-05
2.367e-05
2.36697e-05
2.36685e-05
2.36661e-05
2.36639e-05
2.36612e-05
2.36582e-05
2.36553e-05
2.36524e-05
2.36503e-05
2.36484e-05
2.3648e-05
2.36463e-05
2.36467e-05
2.36407e-05
2.36392e-05
2.36377e-05
2.36367e-05
2.36362e-05
0.00114874
0.000788757
0.000634996
0.000546546
0.000487416
0.00044452
0.000411669
0.000385621
0.000364338
0.000346586
0.000331515
0.000318536
0.000307232
0.00029729
0.000288474
0.000280598
0.000273519
0.000267121
0.00026131
0.000256009
0.000251156
0.000246696
0.000242584
0.000238784
0.000235261
0.000231989
0.000228942
0.000226099
0.000223442
0.000220954
0.00021862
0.000216429
0.000214368
0.000212428
0.000210599
0.000208872
0.00020724
0.000205695
0.000204232
0.000202844
0.000201527
0.000200275
0.000199084
0.000197951
0.000196871
0.000195841
0.000194858
0.000193919
0.000193022
0.000192163
0.000191341
0.000190554
0.000189799
0.000189074
0.000188379
0.00018771
0.000187068
0.00018645
0.000185855
0.000185282
0.00018473
0.000184198
0.000183684
0.000183188
0.000182709
0.000182246
0.000181798
0.000181365
0.000180946
0.00018054
0.000180147
0.000179766
0.000179397
0.000179038
0.00017869
0.000178353
0.000178025
0.000177706
0.000177396
0.000177095
0.000176802
0.000176517
0.000176239
0.00017597
0.000175706
0.00017545
0.0001752
0.000174957
0.000174718
0.000174487
0.000174259
0.000173993
0.000173561
0.000173129
0.0001727
0.000172273
0.000171847
0.000171423
0.000171001
0.000170581
0.000170164
0.000169749
0.000169337
0.000168929
0.000168523
0.000168122
0.000167724
0.00016733
0.00016694
0.000166554
0.000166172
0.000165795
0.000165422
0.000165054
0.00016469
0.000164332
0.000163978
0.000163628
0.000163284
0.000162944
0.000162609
0.000162279
0.000161954
0.000161633
0.000161317
0.000161006
0.0001607
0.000160398
0.000160101
0.000159808
0.00015952
0.000159236
0.000158957
0.000158681
0.00015841
0.000158143
0.000157879
0.00015762
0.000157364
0.000157113
0.000156865
0.000156621
0.000156381
0.000156145
0.000155912
0.000155684
0.000155459
0.000155238
0.000155022
0.000154809
0.0001546
0.000154396
0.000154196
0.000154001
0.00015381
0.000153624
0.000153444
0.000153268
0.000153097
0.000152931
0.000152771
0.000152616
0.000152466
0.000152321
0.000152182
0.000152048
0.000151919
0.000151795
0.000151676
0.000151562
0.000151452
0.000151347
0.000151245
0.000151147
0.000151051
0.000150959
0.000150869
0.000150782
0.000150697
0.000150614
0.000150533
0.000150455
0.00015038
0.000150304
0.000150232
0.00015016
0.000150092
0.000150026
0.000149962
0.0001499
0.000149842
0.000149787
0.000149735
0.000149685
0.000149637
0.000149592
0.000149549
0.000149508
0.00014947
0.000149433
0.000149398
0.000149365
0.000149334
0.000149307
0.00014928
0.000149256
0.000149234
0.000149213
0.000149197
0.000149184
0.000149173
0.000149161
0.00014915
0.00014914
0.000149129
0.000149119
0.000149109
0.000149102
0.000149095
0.000149089
0.000149083
0.000149075
0.000149066
0.000149059
0.000149053
0.000149045
0.000149035
0.000149025
0.000149014
0.000149004
0.000148994
0.000148982
0.000148973
0.000148964
0.000148957
0.000148948
0.000148938
0.000148926
0.000148915
0.000148903
0.000148892
0.000148879
0.000148867
0.000148854
0.000148843
0.00014883
0.000148816
0.000148804
0.000148793
0.00014878
0.000148766
0.000148754
0.000148742
0.000148727
0.000148713
0.000148699
0.000148686
0.000148671
0.000148657
0.000148643
0.000148629
0.000148616
0.000148602
0.000148589
0.000148576
0.000148562
0.000148549
0.000148535
0.000148521
0.000148507
0.000148493
0.000148479
0.000148464
0.00014845
0.000148435
0.000148421
0.000148406
0.000148391
0.000148377
0.000148363
0.000148349
0.000148336
0.000148322
0.000148308
0.000148295
0.000148282
0.000148269
0.000148257
0.000148245
0.000148233
0.000148222
0.000148212
0.000148202
0.000148193
0.000148184
0.000148175
0.000148168
0.00014816
0.000148153
0.000148147
0.000148141
0.000148135
0.000148129
0.000148124
0.000148118
0.000148112
0.000148107
0.000148101
0.000148096
0.000148089
0.000148084
0.000148077
0.000148071
0.000148065
0.000148059
0.000148052
0.000148045
0.000148038
0.000148032
0.000148025
0.000148018
0.000148011
0.000148004
0.000147997
0.00014799
0.000147982
0.000147976
0.000147968
0.000147962
0.000147954
0.000147948
0.00014794
0.000147934
0.000147927
0.000147921
0.000147914
0.000147909
0.000147902
0.000147897
0.000147892
0.000147887
0.000147883
0.00014788
0.000147877
0.000147875
0.000147873
0.000147873
0.00014787
0.00014787
0.000147869
0.000147868
0.000147867
0.000147865
0.000147864
0.000147861
0.000147861
0.000147857
0.000147856
0.000147855
0.000147853
0.000147853
0.000147852
0.000147852
0.000147854
0.000147853
0.000147857
0.000147858
0.000147862
0.00014786
0.000147861
0.000147863
0.000147866
0.000147873
0.000147878
0.000147883
0.000147893
0.000147896
0.000147891
0.000147894
0.000147901
0.000147918
0.000147921
0.000147938
0.000147962
0.000147954
0.000147975
0.000147997
0.000148083
0.000148091
0.000148152
0.000148199
0.000148221
0.000148233
0.000148237
0.000148243
0.000148246
0.000148256
0.000148257
0.000148268
0.000148265
0.000148279
0.000148266
0.000148286
0.000148304
0.000148378
0.000148384
0.000148423
0.00014849
0.000148518
0.000148543
0.000148535
0.000148541
0.000148547
0.000148568
0.000148563
0.000148583
0.000148638
0.000148684
0.000148711
0.000148732
0.000148736
0.000148748
0.000148747
0.000148764
0.000148757
0.000148781
0.000148803
0.00014885
0.000148936
0.000148941
0.000148995
0.000149038
0.000149056
0.000149069
0.000149092
0.000149068
0.000149081
0.000149093
0.000149109
0.000149122
0.000149141
0.000149158
0.000149221
0.000149226
0.000149268
0.000149313
0.00014931
0.000149336
0.00014936
0.000149433
0.00014945
0.000149507
0.000149565
0.000149585
0.000149599
0.000149613
0.000149597
0.000149607
0.000149617
0.000149632
0.000149658
0.000149705
0.000149737
0.000149759
0.000149773
0.00014979
0.000149809
0.000149836
0.00014984
0.000149861
0.000149876
0.000149889
0.000149907
0.000149923
0.000149945
0.000149962
0.00014998
0.000150008
0.000149998
0.000150019
0.000150077
0.000150124
0.000150116
0.000150174
0.000150173
0.000150185
0.000150243
0.000150248
0.000150299
0.000150327
0.000150358
0.000150349
0.000150408
0.000150418
0.000150434
0.000150458
0.000150517
0.000150566
0.000150617
0.000150642
0.000150662
0.000150671
0.000150679
0.000150683
0.000150688
0.000150688
0.000150707
0.000150688
0.000150751
0.000150743
0.000150782
0.000150838
0.000150872
0.000150889
0.000150905
0.00015089
0.000150883
0.0001509
0.000150888
0.000150902
0.00015092
0.0001509
0.000150911
0.000150923
0.000151001
0.000151
0.000151056
0.000151099
0.000151123
0.000151142
0.00015114
0.000151148
0.000151123
0.000151128
0.000151131
0.000151179
0.000151168
0.000151198
0.000151218
0.000151238
0.000151225
0.000151268
0.00015127
0.000151279
0.000151307
0.000151326
0.000151339
0.00015135
0.000151369
0.000151353
0.000151404
0.0001514
0.000151433
0.000151466
0.000151451
0.000151462
0.000151471
0.000151544
0.00015154
0.000151594
0.000151631
0.000151652
0.00015166
0.00015167
0.000151665
0.00015166
0.000151651
0.000151653
0.000151622
0.000151626
0.000151629
0.000151638
0.000151696
0.0001517
0.000151725
0.000151697
0.000151701
0.000151702
0.000151711
0.000151771
0.000151755
0.000151778
0.000151799
0.000151775
0.000151778
0.00015181
0.00015184
0.000151818
0.000151824
0.000151827
0.000151838
0.000151884
0.000151909
0.000151921
0.000151935
0.00015191
0.000151909
0.000151932
0.00015195
0.000151926
0.00170414
0.00157046
0.00143316
0.00131141
0.00120772
0.00112015
0.00104588
0.000982432
0.000927716
0.000880101
0.000838309
0.000801333
0.000768383
0.00073883
0.000712167
0.000687984
0.000665945
0.000645772
0.000627232
0.000610133
0.000594309
0.00057962
0.000565947
0.00055319
0.000541259
0.000530075
0.000519569
0.000509679
0.000500354
0.000491543
0.000483211
0.000475308
0.000467802
0.000460663
0.000453865
0.000447385
0.0004412
0.000435292
0.000429642
0.000424234
0.000419052
0.000414083
0.000409314
0.000404733
0.000400329
0.000396093
0.000392015
0.000388086
0.000384299
0.000380646
0.000377121
0.000373716
0.000370426
0.000367245
0.000364169
0.000361192
0.000358309
0.000355517
0.00035281
0.000350187
0.000347642
0.000345172
0.000342775
0.000340447
0.000338186
0.000335988
0.000333852
0.000331775
0.000329754
0.000327787
0.000325873
0.00032401
0.000322195
0.000320428
0.000318706
0.000317027
0.000315391
0.000313795
0.000312239
0.00031072
0.000309239
0.000307793
0.000306381
0.000305002
0.000303657
0.000302342
0.000301059
0.000299804
0.000298578
0.000297379
0.000296207
0.00029506
0.000293939
0.000292843
0.000291771
0.000290721
0.000289693
0.000288686
0.000287698
0.00028673
0.00028578
0.000284847
0.000283932
0.000283034
0.000282151
0.000281284
0.000280433
0.000279596
0.000278774
0.000277966
0.000277171
0.00027639
0.000275622
0.000274867
0.000274125
0.000273395
0.000272677
0.00027197
0.000271276
0.000270592
0.000269919
0.000269258
0.000268607
0.000267966
0.000267335
0.000266715
0.000266103
0.000265502
0.000264909
0.000264325
0.00026375
0.000263184
0.000262626
0.000262075
0.000261533
0.000260997
0.00026047
0.000259949
0.000259435
0.000258928
0.000258428
0.000257934
0.000257447
0.000256966
0.000256491
0.000256023
0.000255562
0.000255107
0.00025466
0.00025422
0.000253787
0.000253361
0.000252943
0.000252533
0.00025213
0.000251736
0.000251351
0.000250974
0.000250606
0.000250247
0.000249897
0.000249557
0.000249226
0.000248905
0.000248594
0.000248293
0.000248001
0.000247719
0.000247446
0.000247181
0.000246926
0.000246678
0.000246437
0.000246203
0.000245976
0.000245751
0.000245537
0.00024532
0.000245117
0.000244912
0.000244709
0.000244514
0.000244319
0.000244092
0.000243884
0.000243684
0.000243484
0.000243301
0.000243086
0.000242837
0.000242661
0.000242538
0.000242429
0.000242238
0.000242103
0.000241974
0.000241787
0.000241646
0.000241579
0.00024141
0.00024128
0.000241152
0.000241037
0.00024099
0.00024084
0.000240724
0.000240614
0.000240562
0.000240624
0.000240532
0.000240519
0.000240398
0.000240301
0.000240212
0.000240135
0.000240152
0.000240194
0.000240292
0.000240272
0.000240204
0.000240119
0.000240057
0.000240095
0.000240219
0.000240173
0.000240198
0.00024012
0.000240104
0.000240144
0.000240077
0.000240001
0.000239965
0.000240035
0.000240095
0.000240102
0.000240041
0.000240007
0.000239923
0.000239934
0.000239882
0.000239892
0.00023982
0.000239809
0.000239849
0.000239777
0.000239714
0.000239692
0.000239768
0.000239699
0.000239632
0.000239584
0.000239621
0.000239562
0.000239509
0.000239517
0.000239482
0.000239423
0.000239372
0.000239337
0.000239292
0.000239248
0.00023925
0.000239194
0.000239149
0.000239133
0.000239112
0.000239051
0.000239023
0.000238963
0.000238924
0.000238878
0.000238832
0.000238768
0.000238717
0.000238688
0.000238633
0.00023858
0.00023854
0.000238496
0.000238453
0.000238448
0.00023846
0.0002384
0.000238377
0.000238345
0.000238303
0.000238257
0.00023821
0.000238163
0.000238117
0.000238073
0.000238029
0.000237986
0.000237945
0.000237905
0.000237866
0.000237828
0.000237789
0.000237753
0.000237717
0.000237684
0.00023764
0.000237609
0.000237577
0.000237546
0.000237515
0.000237485
0.000237453
0.000237421
0.000237389
0.000237357
0.000237325
0.000237292
0.000237259
0.000237226
0.000237193
0.000237161
0.000237128
0.000237096
0.000237063
0.00023703
0.000236999
0.000236969
0.000236938
0.000236906
0.000236874
0.000236843
0.000236813
0.000236781
0.000236749
0.000236718
0.000236687
0.000236656
0.000236625
0.000236594
0.000236564
0.000236534
0.000236504
0.000236475
0.000236447
0.000236418
0.000236391
0.000236364
0.000236337
0.000236311
0.000236286
0.00023626
0.000236236
0.000236211
0.000236187
0.000236162
0.000236139
0.000236112
0.00023609
0.000236065
0.000236043
0.00023602
0.000236
0.000235979
0.000235961
0.000235939
0.000235923
0.000235899
0.00023588
0.000235863
0.000235841
0.000235834
0.000235828
0.000235838
0.000235849
0.00023588
0.000235878
0.000235897
0.000235883
0.000235897
0.000235917
0.00023598
0.000235969
0.000235958
0.000235983
0.000236041
0.000236103
0.000236119
0.000236174
0.000236163
0.000236191
0.000236249
0.000236301
0.000236304
0.000236297
0.00023633
0.000236374
0.000236357
0.000236354
0.000236362
0.000236356
0.000236371
0.000236372
0.000236404
0.000236451
0.00023646
0.0002365
0.000236602
0.000236604
0.000236661
0.000236664
0.000236746
0.000236734
0.000236724
0.00023677
0.00023685
0.000236869
0.000236907
0.000237001
0.000237079
0.000237065
0.000237116
0.000237159
0.000237217
0.000237277
0.000237273
0.00023731
0.000237381
0.000237493
0.000237613
0.000237714
0.000237729
0.000237731
0.000237735
0.000237753
0.000237854
0.000237974
0.000238085
0.00023814
0.00023814
0.000238142
0.000238215
0.000238283
0.000238249
0.000238291
0.000238251
0.000238274
0.000238387
0.000238435
0.000238416
0.000238507
0.000238629
0.000238727
0.000238775
0.000238825
0.000238884
0.000238855
0.000238833
0.000238916
0.000239042
0.000239117
0.00023916
0.000239163
0.000239216
0.00023933
0.000239367
0.00023947
0.000239607
0.000239618
0.000239621
0.000239742
0.000239827
0.000239906
0.000239974
0.00024001
0.000240044
0.000240021
0.000240044
0.000240125
0.000240161
0.000240265
0.000240247
0.000240252
0.000240287
0.000240357
0.000240394
0.000240432
0.000240508
0.000240665
0.000240795
0.000240796
0.000240852
0.000240896
0.000240974
0.000240995
0.000241097
0.000241168
0.000241232
0.000241265
0.000241262
0.000241321
0.00024137
0.000241444
0.00024154
0.000241557
0.000241563
0.000241579
0.000241628
0.000241645
0.000241661
0.000241694
0.000241756
0.000241782
0.000241814
0.000241849
0.000242028
0.000242006
0.000242043
0.000242097
0.000242255
0.000242293
0.000242306
0.000242287
0.000242287
0.000242383
0.000242359
0.000242361
0.000242401
0.000242549
0.00024269
0.000242728
0.000242846
0.00024294
0.000242986
0.000242974
0.000243032
0.000243019
0.000243096
0.000243066
0.000243074
0.000243089
0.000243179
0.000243209
0.000243348
0.000243431
0.000243403
0.000243452
0.000243554
0.000243587
0.000243559
0.000243557
0.000243564
0.000243603
0.000243564
0.000243615
0.000243663
0.000243704
0.000243746
0.000243765
0.000243819
0.000243854
0.000243822
0.00024383
0.000243949
0.000243939
0.000243965
0.000244058
0.000244141
0.000244152
0.000244146
0.000244142
0.000244137
0.000244158
0.000244214
0.000244299
0.000244376
0.000244473
0.00024444
0.000244422
0.000244411
0.000244448
0.000244529
0.000244514
0.000244598
0.000244603
0.000244645
0.000244677
0.000244716
0.000244711
0.000244719
0.000244718
0.000244747
0.000244759
0.000244862
0.000244953
0.000244913
0.000244999
0.000244984
0.00024504
0.000245089
0.000245045
0.000245064
0.000245121
0.000245149
0.000245093
0.00173459
0.00171857
0.00169119
0.00164893
0.00160087
0.00155016
0.001499
0.00144883
0.0014005
0.00135447
0.00131093
0.00126993
0.00123141
0.00119525
0.00116133
0.0011295
0.00109961
0.00107152
0.00104509
0.0010202
0.000996719
0.000974548
0.000953584
0.00093373
0.000914904
0.000897032
0.000880045
0.000863883
0.000848486
0.000833804
0.000819784
0.000806394
0.000793592
0.000781339
0.0007696
0.000758343
0.000747538
0.000737158
0.000727178
0.000717576
0.000708328
0.000699417
0.000690824
0.000682531
0.000674523
0.000666785
0.000659303
0.000652065
0.000645059
0.000638273
0.000631696
0.00062532
0.000619134
0.000613131
0.000607301
0.000601638
0.000596134
0.000590782
0.000585576
0.000580509
0.000575577
0.000570774
0.000566094
0.000561533
0.000557087
0.00055275
0.000548519
0.000544389
0.000540359
0.000536425
0.000532584
0.000528832
0.000525166
0.000521583
0.000518079
0.000514652
0.0005113
0.00050802
0.00050481
0.000501667
0.000498589
0.000495575
0.000492622
0.000489729
0.00048689
0.000484105
0.000481372
0.000478691
0.000476061
0.000473479
0.000470945
0.000468457
0.000466015
0.000463618
0.000461263
0.000458951
0.00045668
0.000454448
0.000452256
0.000450101
0.000447984
0.000445902
0.000443856
0.000441844
0.000439865
0.000437918
0.000436003
0.00043412
0.000432266
0.000430442
0.000428647
0.00042688
0.00042514
0.000423428
0.000421742
0.000420082
0.000418447
0.000416837
0.000415251
0.000413689
0.000412151
0.000410635
0.000409141
0.00040767
0.000406219
0.00040479
0.000403381
0.000401992
0.000400622
0.000399272
0.00039794
0.000396626
0.00039533
0.000394051
0.000392789
0.000391544
0.000390315
0.000389102
0.000387903
0.00038672
0.00038555
0.000384395
0.000383253
0.000382125
0.000381009
0.000379907
0.000378817
0.00037774
0.000376676
0.000375625
0.000374586
0.00037356
0.000372548
0.000371549
0.000370563
0.000369591
0.000368634
0.00036769
0.000366762
0.000365848
0.00036495
0.000364067
0.0003632
0.000362349
0.000361515
0.000360697
0.000359897
0.000359112
0.000358345
0.000357594
0.000356859
0.00035614
0.000355437
0.000354749
0.000354076
0.000353416
0.000352771
0.000352138
0.000351522
0.000350915
0.000350327
0.000349745
0.000349188
0.000348628
0.000348089
0.000347559
0.000347048
0.000346547
0.00034606
0.000345565
0.000345103
0.000344628
0.00034416
0.000343704
0.000343225
0.000342771
0.000342301
0.000341862
0.000341442
0.000341018
0.000340584
0.000340166
0.00033978
0.000339315
0.000338853
0.000338444
0.000338091
0.000337757
0.000337364
0.000337052
0.000336723
0.000336435
0.000336033
0.000335921
0.000335569
0.000335416
0.000335271
0.000334951
0.000334799
0.000334525
0.000334293
0.000334256
0.000333989
0.000334014
0.000333826
0.000333877
0.000333636
0.000333404
0.000333218
0.00033323
0.000332955
0.000332751
0.000332554
0.000332381
0.000332463
0.00033225
0.000332049
0.000331868
0.000331825
0.000331767
0.00033152
0.000331403
0.00033117
0.000330999
0.000330831
0.000330835
0.000330728
0.000330582
0.00033041
0.000330232
0.000330095
0.000330208
0.000329975
0.000329976
0.00033011
0.000329867
0.000329638
0.000329601
0.000329614
0.000329321
0.000329229
0.000329114
0.000328958
0.000328787
0.000328609
0.00032843
0.000328249
0.000328068
0.000327888
0.000327708
0.000327528
0.000327351
0.000327171
0.000326995
0.00032682
0.000326646
0.000326473
0.000326299
0.000326129
0.000325959
0.00032579
0.000325627
0.00032546
0.000325294
0.00032513
0.000324967
0.000324804
0.000324644
0.000324485
0.000324329
0.000324174
0.000324022
0.000323871
0.000323724
0.000323572
0.000323449
0.000323233
0.000323061
0.000322951
0.000322826
0.00032262
0.000322456
0.000322297
0.000322205
0.000322127
0.000322033
0.000321926
0.00032181
0.00032169
0.000321566
0.000321443
0.000321315
0.000321207
0.000321029
0.000320878
0.000320738
0.000320645
0.000320525
0.000320406
0.000320243
0.000320142
0.000320054
0.000319973
0.000319824
0.000319687
0.000319597
0.000319504
0.000319412
0.000319265
0.000319164
0.00031906
0.00031895
0.000318837
0.000318723
0.000318609
0.000318496
0.000318382
0.00031827
0.000318158
0.000318047
0.000317936
0.000317827
0.000317718
0.00031761
0.000317502
0.000317396
0.000317289
0.000317184
0.000317078
0.000316974
0.000316867
0.000316762
0.000316657
0.000316551
0.000316449
0.000316341
0.000316242
0.000316158
0.000316059
0.000315973
0.000315892
0.000315815
0.000315754
0.000315676
0.000315596
0.000315523
0.000315461
0.00031541
0.000315367
0.000315332
0.000315304
0.000315281
0.000315264
0.000315251
0.000315237
0.000315232
0.000315233
0.000315242
0.000315247
0.000315263
0.000315276
0.000315308
0.00031532
0.000315358
0.000315356
0.000315382
0.000315415
0.000315336
0.000315248
0.000315179
0.000315187
0.00031515
0.000315083
0.000315023
0.000314989
0.000315034
0.000315064
0.000315153
0.000315226
0.000315283
0.000315301
0.000315233
0.000315207
0.00031513
0.000315103
0.000315129
0.00031508
0.000315032
0.000314971
0.000315026
0.000315062
0.000315175
0.000315255
0.000315323
0.000315228
0.000315282
0.000315244
0.000315321
0.000315271
0.000315434
0.000315466
0.000315682
0.000315831
0.00031598
0.000316127
0.000316173
0.000316084
0.000316096
0.000316222
0.00031627
0.000316355
0.000316446
0.000316589
0.000316709
0.000316704
0.000316663
0.000316644
0.000316601
0.000316581
0.000316523
0.000316511
0.000316512
0.000316607
0.000316578
0.00031683
0.000317214
0.00031719
0.000317165
0.000317257
0.000317281
0.000317373
0.000317333
0.000317286
0.000317421
0.000317534
0.000317805
0.00031797
0.000318322
0.00031829
0.000318225
0.000318211
0.000318245
0.000318419
0.000318732
0.000318865
0.000318991
0.000319246
0.000319507
0.000319484
0.000319437
0.000319403
0.000319374
0.000319371
0.000319572
0.000319739
0.00031967
0.000319787
0.000319943
0.000320056
0.000319971
0.000320062
0.000320172
0.000320447
0.000320514
0.000320686
0.000320608
0.000320743
0.000320986
0.000321277
0.000321361
0.000321315
0.000321302
0.000321447
0.000321714
0.000321985
0.000321972
0.0003221
0.000322443
0.000322503
0.000322499
0.000322427
0.000322377
0.00032236
0.00032236
0.000322376
0.000322355
0.000322403
0.000322598
0.000322848
0.000322973
0.000322934
0.000322907
0.000323086
0.000323266
0.000323313
0.000323471
0.000323394
0.000323459
0.000323432
0.000323526
0.000323664
0.000323827
0.000324008
0.000324266
0.000324457
0.000324638
0.000324592
0.000324779
0.000324764
0.000324747
0.00032488
0.00032503
0.000324999
0.000325145
0.000325115
0.00032505
0.000325108
0.000325166
0.000325461
0.000325667
0.000325685
0.000325795
0.000325742
0.000325721
0.000325681
0.000325726
0.000325702
0.000325748
0.000325875
0.000326174
0.000326099
0.000326206
0.000326366
0.000326295
0.000326257
0.000326349
0.000326517
0.000326672
0.000326584
0.000326544
0.000326655
0.000326852
0.000326949
0.000326904
0.000326876
0.000326947
0.000327103
0.000327249
0.000327222
0.000327344
0.000327357
0.000327419
0.000327543
0.000327516
0.000327644
0.000327753
0.000327876
0.000327854
0.000327928
0.000328154
0.000328402
0.000328337
0.000328415
0.000328463
0.000328389
0.000328311
0.00032827
0.000328286
0.00032838
0.000328593
0.000328493
0.000328474
0.000328624
0.000328796
0.000328752
0.0003288
0.000328764
0.000328834
0.000328821
0.000328807
0.00173679
0.00173433
0.00172905
0.00171962
0.00170766
0.00169112
0.0016714
0.00164909
0.0016249
0.00159947
0.0015732
0.0015465
0.00151968
0.00149299
0.0014666
0.00144067
0.0014153
0.00139054
0.00136646
0.00134308
0.00132041
0.00129845
0.00127722
0.00125668
0.00123682
0.00121764
0.0011991
0.00118119
0.00116389
0.00114716
0.001131
0.00111537
0.00110026
0.00108564
0.0010715
0.00105782
0.00104457
0.00103173
0.0010193
0.00100725
0.000995567
0.000984234
0.000973236
0.00096256
0.000952192
0.000942119
0.00093233
0.000922812
0.000913555
0.000904549
0.000895782
0.000887247
0.000878933
0.000870832
0.000862936
0.000855238
0.000847729
0.000840403
0.000833252
0.000826272
0.000819454
0.000812795
0.000806287
0.000799926
0.000793706
0.000787624
0.000781673
0.00077585
0.000770149
0.000764565
0.000759095
0.000753736