/*--------------------------------*- C++ -*----------------------------------*\
  =========                 |
  \\      /  F ield         | OpenFOAM: The Open Source CFD Toolbox
   \\    /   O peration     | Website:  https://openfoam.org
    \\  /    A nd           | Version:  7
     \\/     M anipulation  |
\*---------------------------------------------------------------------------*/
FoamFile
{
    version     2.0;
    format      ascii;
    class       volScalarField;
    location    "167";
    object      omega;
}
// * * * * * * * * * * * * * * * * * * * * * * * * * * * * * * * * * * * * * //

dimensions      [0 0 -1 0 0 0 0];

internalField   nonuniform List<scalar> 
36000
(
610.052
617.56
623.778
628.629
632.508
635.26
637.392
638.577
639.446
639.441
639.227
638.7
637.764
636.567
635.155
633.566
631.833
629.986
628.05
626.045
623.99
621.9
619.789
617.668
615.546
613.431
611.331
609.25
607.193
605.164
603.166
601.2
599.27
597.377
595.521
593.703
591.923
590.182
588.48
586.817
585.191
583.604
582.053
580.538
579.06
577.616
576.206
574.83
573.486
572.174
570.893
569.642
568.419
567.225
566.058
564.918
563.803
562.714
561.648
560.606
559.587
558.589
557.613
556.657
555.721
554.804
553.906
553.026
552.163
551.317
550.488
549.674
548.876
548.092
547.323
546.567
545.825
545.096
544.38
543.676
542.984
542.304
541.634
540.975
540.327
539.689
539.061
538.443
537.834
537.233
536.642
536.058
535.483
534.916
534.356
533.802
533.253
532.711
532.173
531.64
531.111
530.586
530.065
529.547
529.034
528.523
528.017
527.513
527.013
526.516
526.022
525.531
525.044
524.559
524.078
523.6
523.126
522.654
522.186
521.721
521.259
520.8
520.345
519.893
519.444
518.998
518.556
518.117
517.681
517.248
516.819
516.392
515.969
515.549
515.132
514.719
514.308
513.901
513.496
513.095
512.697
512.302
511.91
511.521
511.135
510.752
510.372
509.996
509.622
509.252
508.885
508.521
508.161
507.803
507.449
507.099
506.752
506.408
506.067
505.73
505.397
505.067
504.74
504.418
504.098
503.782
503.47
503.161
502.855
502.553
502.255
501.959
501.667
501.377
501.091
500.808
500.528
500.25
499.975
499.703
499.433
499.167
498.902
498.641
498.382
498.125
497.871
497.619
497.37
497.124
496.88
496.638
496.399
496.162
495.928
495.695
495.466
495.238
495.013
494.79
494.57
494.351
494.135
493.922
493.71
493.5
493.293
493.087
492.883
492.682
492.482
492.284
492.088
491.894
491.701
491.51
491.32
491.132
490.945
490.76
490.576
490.393
490.212
490.032
489.853
489.675
489.499
489.323
489.149
488.976
488.804
488.633
488.463
488.294
488.126
487.959
487.793
487.629
487.465
487.302
487.14
486.979
486.819
486.659
486.501
486.344
486.187
486.031
485.877
485.723
485.57
485.417
485.266
485.115
484.966
484.816
484.668
484.521
484.374
484.228
484.083
483.938
483.795
483.651
483.509
483.367
483.226
483.086
482.946
482.807
482.668
482.53
482.393
482.256
482.12
481.984
481.849
481.714
481.58
481.447
481.314
481.182
481.051
480.92
480.79
480.661
480.532
480.404
480.277
480.151
480.025
479.9
479.775
479.651
479.529
479.406
479.285
479.164
479.044
478.924
478.805
478.687
478.57
478.453
478.336
478.22
478.105
477.99
477.876
477.762
477.649
477.536
477.423
477.311
477.2
477.089
476.978
476.868
476.758
476.649
476.54
476.431
476.324
476.216
476.109
476.002
475.896
475.789
475.684
475.579
475.475
475.37
475.267
475.163
475.061
474.958
474.857
474.755
474.654
474.553
474.454
474.354
474.256
474.158
474.061
473.964
473.869
473.773
473.678
473.583
473.489
473.395
473.302
473.209
473.116
473.024
472.932
472.841
472.749
472.659
472.569
472.48
472.391
472.303
472.216
472.129
472.043
471.957
471.871
471.787
471.702
471.621
471.537
471.458
471.376
471.298
471.218
471.138
471.064
470.986
470.911
470.838
470.76
470.691
470.614
470.543
470.473
470.392
470.325
470.243
470.166
470.096
470.004
469.935
469.851
469.759
469.696
469.584
469.51
469.419
469.29
469.232
469.205
469.215
469.19
469.142
469.08
469.021
468.949
468.884
468.812
468.741
468.668
468.59
468.518
468.437
468.357
468.28
468.233
468.115
468.06
468.008
468.037
468.038
467.991
467.953
467.888
467.832
467.764
467.699
467.623
467.561
467.488
467.423
467.381
467.245
467.185
467.123
467.07
467.089
467.091
467.059
467.014
466.946
466.903
466.814
466.765
466.646
466.594
466.537
466.49
466.446
466.485
466.494
466.451
466.41
466.352
466.29
466.237
466.175
466.08
466.005
465.96
465.861
465.815
465.839
465.835
465.812
465.755
465.689
465.633
465.575
465.521
465.477
465.368
465.322
465.356
465.335
465.341
465.307
465.263
465.205
465.161
465.091
465.033
464.975
464.94
464.851
464.81
464.829
464.842
464.823
464.784
464.728
464.685
464.599
464.549
464.498
464.455
464.416
464.45
464.454
464.411
464.363
464.311
464.26
464.184
464.137
464.089
464.05
464.055
464.083
464.064
464.038
463.979
463.925
463.868
463.838
463.745
463.79
463.701
463.706
463.731
463.718
463.68
463.633
463.586
463.542
463.492
463.422
463.376
463.329
463.383
463.295
463.33
463.346
463.333
463.302
463.263
463.219
463.175
463.068
463.021
463.008
462.998
462.909
462.874
462.837
462.934
462.848
462.85
462.914
462.935
462.916
462.88
462.845
462.806
462.772
462.736
462.697
462.656
462.61
462.561
462.515
462.478
462.418
462.397
462.305
462.264
462.296
462.24
462.193
462.158
462.122
462.185
462.108
462.155
462.171
462.158
462.136
462.106
462.077
462.053
462.012
461.965
461.922
461.871
461.845
461.762
461.727
461.692
461.661
461.643
461.606
461.58
461.551
461.623
461.548
461.602
461.511
44.5936
64.5465
79.583
91.6962
101.917
110.719
118.421
125.187
131.199
136.551
141.34
145.644
149.519
153.016
156.177
159.041
161.64
164.002
166.152
168.113
169.904
171.542
173.044
174.422
175.689
176.857
177.934
178.931
179.854
180.712
181.51
182.255
182.95
183.602
184.215
184.791
185.335
185.849
186.337
186.8
187.24
187.661
188.062
188.447
188.816
189.171
189.513
189.842
190.16
190.468
190.766
191.054
191.335
191.607
191.871
192.129
192.379
192.623
192.861
193.094
193.32
193.541
193.757
193.968
194.174
194.376
194.573
194.765
194.953
195.137
195.317
195.493
195.665
195.833
195.997
196.158
196.315
196.468
196.618
196.765
196.908
197.048
197.184
197.318
197.448
197.576
197.7
197.821
197.94
198.057
198.17
198.283
198.393
198.499
198.604
198.706
198.806
198.904
199.001
199.095
199.189
199.28
199.371
199.459
199.547
199.633
199.718
199.801
199.883
199.964
200.044
200.123
200.2
200.276
200.351
200.425
200.498
200.57
200.64
200.709
200.778
200.845
200.911
200.976
201.041
201.104
201.166
201.227
201.287
201.346
201.404
201.461
201.518
201.573
201.627
201.681
201.733
201.785
201.836
201.885
201.934
201.982
202.029
202.075
202.12
202.164
202.207
202.249
202.29
202.33
202.369
202.406
202.443
202.478
202.512
202.544
202.576
202.606
202.634
202.661
202.687
202.711
202.734
202.755
202.774
202.792
202.809
202.824
202.838
202.85
202.861
202.87
202.879
202.884
202.896
202.908
202.917
202.917
202.931
202.937
202.942
202.945
202.936
202.941
202.935
202.925
202.914
202.904
202.894
202.882
202.87
202.856
202.842
202.826
202.809
202.791
202.772
202.751
202.731
202.709
202.687
202.664
202.64
202.615
202.589
202.562
202.535
202.507
202.477
202.447
202.416
202.385
202.354
202.322
202.29
202.258
202.226
202.192
202.159
202.125
202.091
202.058
202.024
201.99
201.956
201.922
201.888
201.854
201.82
201.786
201.751
201.718
201.683
201.648
201.613
201.579
201.544
201.51
201.476
201.442
201.407
201.374
201.339
201.305
201.271
201.237
201.203
201.169
201.134
201.1
201.066
201.031
200.997
200.963
200.929
200.895
200.861
200.827
200.793
200.759
200.725
200.691
200.657
200.623
200.589
200.556
200.522
200.488
200.454
200.421
200.387
200.353
200.32
200.286
200.253
200.219
200.185
200.152
200.118
200.085
200.052
200.018
199.985
199.951
199.918
199.885
199.851
199.818
199.784
199.751
199.717
199.683
199.649
199.615
199.581
199.547
199.513
199.479
199.445
199.41
199.376
199.342
199.307
199.273
199.238
199.204
199.17
199.135
199.101
199.066
199.032
198.998
198.964
198.929
198.895
198.861
198.827
198.793
198.759
198.724
198.69
198.656
198.622
198.588
198.554
198.52
198.486
198.452
198.418
198.383
198.35
198.315
198.281
198.247
198.213
198.179
198.144
198.11
198.076
198.041
198.006
197.972
197.937
197.902
197.868
197.833
197.799
197.764
197.729
197.694
197.66
197.625
197.589
197.554
197.519
197.483
197.447
197.412
197.376
197.34
197.304
197.267
197.231
197.194
197.157
197.119
197.082
197.045
197.007
196.969
196.93
196.892
196.853
196.815
196.776
196.737
196.698
196.658
196.619
196.579
196.539
196.499
196.458
196.418
196.377
196.337
196.297
196.255
196.215
196.173
196.132
196.09
196.049
196.007
195.966
195.924
195.884
195.842
195.802
195.761
195.722
195.682
195.644
195.605
195.566
195.525
195.485
195.445
195.404
195.365
195.323
195.283
195.242
195.2
195.161
195.12
195.08
195.041
195.001
194.962
194.922
194.885
194.846
194.808
194.766
194.727
194.685
194.645
194.604
194.565
194.523
194.484
194.444
194.404
194.366
194.326
194.288
194.251
194.213
194.176
194.14
194.103
194.066
194.027
193.991
193.953
193.917
193.88
193.844
193.808
193.773
193.736
193.701
193.666
193.629
193.592
193.556
193.52
193.485
193.448
193.411
193.374
193.338
193.302
193.269
193.236
193.204
193.171
193.138
193.103
193.069
193.035
193.003
192.969
192.936
192.903
192.873
192.841
192.81
192.778
192.745
192.713
192.681
192.649
192.619
192.586
192.557
192.527
192.497
192.467
192.439
192.41
192.381
192.352
192.325
192.296
192.268
192.24
192.211
192.182
192.155
192.128
192.1
192.072
192.044
192.017
191.989
191.962
191.934
191.909
191.882
191.857
191.829
191.803
191.774
191.747
191.719
191.694
191.667
191.643
191.617
191.592
191.568
191.544
191.519
191.493
191.468
191.443
191.419
191.394
191.371
191.347
191.325
191.302
191.28
191.257
191.235
191.213
191.189
191.167
191.144
191.121
191.099
191.077
191.056
191.034
191.014
190.993
190.974
190.953
190.932
190.911
190.891
190.87
190.847
190.825
190.804
190.783
190.763
190.741
190.722
190.701
190.681
190.659
190.638
190.618
190.597
190.576
190.554
190.534
190.514
190.493
190.474
190.454
190.437
190.418
190.399
190.38
190.362
190.343
190.324
190.304
190.286
190.265
190.247
190.227
190.209
190.191
190.174
190.157
190.141
190.125
190.109
190.092
190.078
190.063
190.051
190.036
190.025
190.011
30.0554
32.4493
35.3612
38.4091
41.4329
44.3592
47.1592
49.8176
52.3333
54.7083
56.9473
59.0566
61.0427
62.912
64.6711
66.3262
67.8833
69.3482
70.7263
72.0229
73.2429
74.391
75.4716
76.4891
77.4472
78.3499
79.2006
80.0026
80.7592
81.4732
82.1474
82.7845
83.3869
83.9568
84.4964
85.0078
85.4928
85.9531
86.3906
86.8067
87.2028
87.5805
87.9408
88.2851
88.6143
88.9297
89.2321
89.5224
89.8015
90.0701
90.329
90.5789
90.8203
91.054
91.2803
91.4999
91.7132
91.9206
92.1225
92.3193
92.5114
92.699
92.8825
93.0622
93.2382
93.4109
93.5805
93.7471
93.9109
94.0721
94.2309
94.3874
94.5417
94.6941
94.8444
94.993
95.1398
95.285
95.4286
95.5708
95.7116
95.851
95.9891
96.1261
96.2617
96.3965
96.5299
96.6625
96.7939
96.9247
97.0543
97.1834
97.3109
97.4367
97.5609
97.6835
97.8047
97.9243
98.0426
98.1595
98.275
98.3893
98.5022
98.6139
98.7244
98.8337
98.9419
99.0489
99.1549
99.2598
99.3637
99.4666
99.5685
99.6695
99.7696
99.8688
99.9672
100.065
100.161
100.257
100.353
100.447
100.541
100.634
100.726
100.818
100.909
100.999
101.089
101.179
101.267
101.355
101.443
101.53
101.616
101.702
101.788
101.873
101.957
102.041
102.125
102.208
102.291
102.373
102.455
102.536
102.617
102.698
102.778
102.859
102.938
103.018
103.097
103.176
103.254
103.332
103.41
103.487
103.565
103.641
103.718
103.794
103.869
103.945
104.019
104.094
104.168
104.241
104.314
104.386
104.458
104.529
104.6
104.669
104.739
104.807
104.875
104.942
105.009
105.075
105.14
105.205
105.269
105.332
105.395
105.457
105.518
105.579
105.638
105.697
105.755
105.812
105.868
105.924
105.978
106.032
106.086
106.138
106.19
106.24
106.29
106.339
106.388
106.436
106.483
106.529
106.575
106.619
106.664
106.709
106.752
106.794
106.836
106.877
106.916
106.956
106.995
107.034
107.072
107.11
107.146
107.182
107.218
107.252
107.287
107.32
107.354
107.387
107.42
107.453
107.485
107.516
107.548
107.578
107.609
107.639
107.669
107.698
107.727
107.755
107.784
107.811
107.839
107.866
107.893
107.92
107.946
107.973
107.998
108.024
108.05
108.075
108.101
108.125
108.15
108.174
108.199
108.223
108.247
108.27
108.294
108.317
108.341
108.364
108.386
108.409
108.431
108.453
108.475
108.497
108.518
108.539
108.56
108.581
108.601
108.621
108.641
108.661
108.68
108.7
108.719
108.737
108.756
108.774
108.792
108.81
108.828
108.845
108.862
108.879
108.896
108.913
108.93
108.946
108.962
108.978
108.994
109.009
109.025
109.04
109.055
109.07
109.085
109.099
109.113
109.128
109.142
109.155
109.169
109.183
109.196
109.209
109.222
109.235
109.248
109.26
109.272
109.284
109.296
109.308
109.32
109.331
109.342
109.353
109.364
109.374
109.385
109.395
109.406
109.416
109.426
109.435
109.445
109.455
109.464
109.474
109.483
109.492
109.501
109.509
109.518
109.526
109.535
109.543
109.551
109.56
109.568
109.575
109.583
109.591
109.598
109.605
109.613
109.619
109.626
109.632
109.639
109.644
109.65
109.656
109.662
109.666
109.672
109.676
109.682
109.686
109.691
109.695
109.7
109.703
109.708
109.712
109.716
109.72
109.724
109.728
109.732
109.735
109.738
109.74
109.742
109.745
109.748
109.751
109.754
109.758
109.761
109.76
109.759
109.761
109.761
109.765
109.767
109.763
109.766
109.766
109.761
109.762
109.756
109.755
109.756
109.756
109.746
109.741
109.74
109.74
109.728
109.729
109.73
109.729
109.709
109.708
109.708
109.708
109.707
109.706
109.705
109.684
109.668
109.651
109.645
109.64
109.635
109.62
109.615
109.612
109.602
109.596
109.596
109.591
109.577
109.561
109.545
109.533
109.534
109.536
109.535
109.533
109.532
109.529
109.527
109.509
109.477
109.476
109.477
109.466
109.449
109.43
109.425
109.417
109.403
109.405
109.408
109.387
109.384
109.383
109.381
109.372
109.349
109.33
109.303
109.283
109.281
109.282
109.282
109.264
109.264
109.251
109.244
109.217
109.216
109.208
109.209
109.204
109.199
109.196
109.191
109.191
109.178
109.149
109.143
109.136
109.118
109.106
109.097
109.082
109.066
109.058
109.032
109.029
109.024
109.023
109.005
109.007
109.005
109.004
109.002
108.986
108.963
108.961
108.963
108.956
108.935
108.932
108.928
108.917
108.899
108.896
108.893
108.892
108.882
108.883
108.871
108.853
108.827
108.823
108.81
108.812
108.809
108.789
108.787
108.787
108.772
108.753
108.737
108.722
108.702
108.701
108.688
108.692
108.688
108.686
108.669
108.671
108.661
108.649
108.648
108.638
108.618
108.617
108.617
108.615
108.595
108.588
108.586
108.575
108.565
108.566
108.566
108.565
108.562
108.56
108.557
108.536
108.504
108.505
108.504
108.503
108.485
108.476
108.466
108.452
108.436
108.418
108.414
108.413
108.414
108.405
108.381
108.377
108.377
108.365
108.367
108.368
108.367
108.348
108.347
108.347
108.335
108.323
108.3
108.284
108.266
108.267
108.262
108.265
108.255
108.257
108.25
108.243
108.246
108.238
108.239
108.239
108.238
108.236
108.221
108.206
108.207
108.209
29.5262
29.6593
29.992
30.604
31.355
32.2011
33.1076
34.0484
35.0045
35.9621
36.9112
37.845
38.7585
39.6483
40.5121
41.3483
42.1561
42.935
43.6849
44.406
45.0985
45.7631
46.4003
47.0109
47.5955
48.155
48.6903
49.2021
49.6914
50.159
50.6058
51.0326
51.4402
51.8295
52.2012
52.5562
52.8951
53.2188
53.5278
53.823
54.1049
54.3743
54.6317
54.8777
55.1128
55.3378
55.5529
55.7588
55.956
56.1448
56.3258
56.4993
56.6658
56.8256
56.9791
57.1266
57.2685
57.405
57.5366
57.6634
57.7857
57.9039
58.018
58.1284
58.2353
58.3389
58.4394
58.5369
58.6317
58.7239
58.8136
58.9011
58.9865
59.0699
59.1514
59.2311
59.3093
59.3859
59.461
59.5349
59.6075
59.6789
59.7493
59.8187
59.8871
59.9547
60.0215
60.0875
60.1529
60.2176
60.2818
60.3455
60.4086
60.4713
60.5336
60.5954
60.6568
60.7177
60.7783
60.8384
60.8982
60.9577
61.0167
61.0754
61.1338
61.1919
61.2496
61.3071
61.3642
61.421
61.4776
61.5339
61.5899
61.6457
61.7013
61.7566
61.8117
61.8666
61.9213
61.9759
62.0302
62.0844
62.1384
62.1922
62.2459
62.2995
62.3529
62.4063
62.4595
62.5126
62.5656
62.6185
62.6713
62.724
62.7766
62.8292
62.8817
62.9342
62.9866
63.039
63.0914
63.1438
63.1961
63.2485
63.301
63.3535
63.4061
63.4588
63.5117
63.5646
63.6177
63.671
63.7244
63.778
63.8319
63.8859
63.9402
63.9947
64.0495
64.1045
64.1597
64.2152
64.271
64.3269
64.3832
64.4396
64.4963
64.5531
64.61
64.6671
64.7243
64.7814
64.8386
64.8957
64.9527
65.0097
65.0665
65.1231
65.1797
65.2361
65.2924
65.3486
65.4047
65.4604
65.5162
65.5716
65.6271
65.6821
65.7368
65.7915
65.8458
65.8998
65.9531
66.0064
66.0589
66.1114
66.1632
66.215
66.2661
66.3169
66.3673
66.4173
66.467
66.5164
66.5652
66.6143
66.663
66.7116
66.7604
66.8089
66.8575
66.9054
66.9533
67.0009
67.048
67.0945
67.1409
67.1871
67.2333
67.2791
67.3248
67.3698
67.4142
67.4591
67.5034
67.5474
67.5906
67.6336
67.6761
67.7187
67.7608
67.8028
67.8449
67.8868
67.9285
67.9697
68.0105
68.051
68.0912
68.1312
68.1709
68.2104
68.2497
68.289
68.3281
68.367
68.4055
68.4441
68.4827
68.5206
68.5585
68.5964
68.6339
68.6712
68.7083
68.7453
68.7821
68.8186
68.8551
68.8915
68.9276
68.9636
68.9994
69.0352
69.0707
69.106
69.1412
69.1762
69.2111
69.2457
69.2802
69.3145
69.3485
69.3825
69.4162
69.4498
69.4831
69.5162
69.5492
69.582
69.6145
69.6468
69.679
69.711
69.7428
69.7744
69.8059
69.8373
69.8685
69.8996
69.9305
69.9613
69.992
70.0225
70.0529
70.0832
70.1133
70.1433
70.1732
70.2029
70.2325
70.262
70.2913
70.3206
70.3497
70.3787
70.4076
70.4363
70.4649
70.4933
70.5216
70.5497
70.5776
70.6054
70.6331
70.6606
70.6879
70.715
70.7421
70.7689
70.7956
70.8222
70.8486
70.875
70.9011
70.9272
70.9531
70.979
71.0047
71.0304
71.0559
71.0814
71.1068
71.1322
71.1574
71.1825
71.2075
71.2325
71.2573
71.282
71.3067
71.3311
71.3555
71.3797
71.404
71.428
71.452
71.4757
71.4994
71.5228
71.5463
71.5694
71.5925
71.6154
71.6381
71.6606
71.6829
71.7051
71.7269
71.7488
71.7702
71.7917
71.8128
71.8338
71.8547
71.8753
71.896
71.9163
71.9367
71.9566
71.9766
71.996
72.0159
72.0345
72.0541
72.0723
72.0916
72.1092
72.128
72.1449
72.1632
72.1799
72.1981
72.2148
72.2328
72.2489
72.2664
72.2819
72.2994
72.3147
72.3323
72.3473
72.3647
72.3794
72.3966
72.4111
72.4285
72.4427
72.4599
72.4736
72.4908
72.5043
72.5217
72.5339
72.5513
72.5634
72.5808
72.5929
72.6115
72.624
72.6423
72.6539
72.6729
72.6842
72.7045
72.7147
72.7381
72.7473
72.7563
72.7366
72.7544
72.7431
72.7387
72.7459
72.754
72.7658
72.781
72.7939
72.8054
72.8229
72.8455
72.8475
72.8615
72.8579
72.8591
72.8682
72.8752
72.891
72.8993
72.9199
72.9285
72.9367
72.9229
72.9386
72.9298
72.9287
72.935
72.9401
72.952
72.9597
72.9785
72.9877
72.9967
72.9852
73.0014
72.9927
72.99
72.9964
73.003
73.0156
73.0231
73.0383
73.0303
73.0433
73.0506
73.0556
73.0441
73.0349
73.0372
73.0422
73.0499
73.0575
73.0662
73.0753
73.0847
73.0929
73.1011
73.1144
73.123
73.1312
73.138
73.1448
73.149
73.1372
73.1293
73.1411
73.1444
73.1332
73.1274
73.1238
73.136
73.1396
73.1414
73.1162
73.0792
73.0898
73.0794
73.0746
73.0792
73.0847
73.0988
73.1098
73.1195
73.1277
73.1336
73.1495
73.156
73.1514
73.1656
73.1552
73.1679
73.1748
73.1672
73.1731
73.1614
73.1526
73.1632
73.1681
73.1624
73.1615
73.1624
73.1741
73.1693
73.1595
73.1683
73.1752
73.1784
73.1679
73.1626
73.1629
73.1619
73.1726
73.1762
73.1666
73.1582
73.1675
73.1536
73.1585
73.1446
73.1375
73.1357
73.1376
73.1394
73.14
73.1492
73.1392
73.1475
73.1422
73.1416
73.1422
73.1545
73.1598
73.1647
73.167
73.1686
73.168
73.147
73.1302
73.1406
73.1441
73.1467
73.131
73.1128
73.1226
73.1291
73.1176
73.1265
73.1313
73.1338
73.1204
73.1306
73.1163
73.1257
73.1308
73.1327
73.1144
73.1238
73.1263
73.1287
73.1086
73.0852
73.0939
73.0885
73.0874
73.086
73.0978
73.102
73.1056
73.1065
73.0869
73.0983
73.1012
73.0866
73.0992
73.1027
73.0905
73.0998
73.0865
73.0952
73.1008
29.4884
29.3904
29.3402
29.3598
29.4217
29.5624
29.7598
30.0064
30.2916
30.6065
30.945
31.3011
31.6695
32.0461
32.4272
32.8099
33.1918
33.5709
33.9456
34.3147
34.6771
35.032
35.3788
35.717
36.0462
36.3662
36.6768
36.9779
37.2696
37.5517
37.8243
38.0877
38.3418
38.5869
38.8231
39.0506
39.2696
39.4803
39.683
39.8778
40.0651
40.2449
40.4176
40.5834
40.7425
40.8952
41.0416
41.182
41.3167
41.4457
41.5694
41.6879
41.8015
41.9104
42.0146
42.1145
42.2102
42.3019
42.3897
42.4739
42.5545
42.6317
42.7058
42.7767
42.8447
42.9099
42.9725
43.0325
43.0901
43.1453
43.1984
43.2494
43.2984
43.3455
43.3908
43.4344
43.4765
43.517
43.556
43.5937
43.6301
43.6653
43.6993
43.7323
43.7642
43.7952
43.8253
43.8545
43.8829
43.9107
43.9377
43.964
43.9898
44.015
44.0397
44.0639
44.0877
44.111
44.134
44.1566
44.1789
44.2008
44.2225
44.2439
44.265
44.2859
44.3066
44.3271
44.3474
44.3675
44.3875
44.4074
44.4271
44.4467
44.4662
44.4856
44.5049
44.5242
44.5434
44.5625
44.5816
44.6007
44.6197
44.6388
44.6578
44.6768
44.6959
44.7149
44.734
44.7531
44.7722
44.7914
44.8106
44.8299
44.8492
44.8686
44.8881
44.9076
44.9272
44.9469
44.9667
44.9866
45.0066
45.0268
45.0472
45.0678
45.0887
45.1098
45.1311
45.1526
45.1745
45.1966
45.2189
45.2416
45.2646
45.2879
45.3116
45.3356
45.36
45.3848
45.41
45.4356
45.4616
45.4881
45.5149
45.5422
45.5699
45.5979
45.6264
45.6552
45.6844
45.7139
45.7438
45.7739
45.8042
45.8348
45.8657
45.8967
45.928
45.9594
45.9911
46.023
46.0552
46.0875
46.12
46.1526
46.1855
46.2184
46.2515
46.2846
46.3177
46.3507
46.3836
46.4165
46.4491
46.4818
46.5142
46.5467
46.5792
46.6115
46.6438
46.6761
46.7084
46.7407
46.773
46.8054
46.8381
46.8707
46.9035
46.9362
46.9694
47.0023
47.0355
47.0687
47.1019
47.1347
47.1677
47.2002
47.233
47.2654
47.2981
47.3308
47.3629
47.3955
47.4278
47.4602
47.492
47.5237
47.5551
47.5866
47.6177
47.6492
47.6805
47.7119
47.7431
47.7744
47.8052
47.8361
47.8667
47.8974
47.9277
47.9583
47.9886
48.0191
48.0493
48.0798
48.11
48.1401
48.1704
48.2003
48.2302
48.2602
48.29
48.3197
48.3495
48.3792
48.4087
48.4382
48.4677
48.4971
48.5265
48.5558
48.5851
48.6143
48.6435
48.6727
48.7018
48.7309
48.7599
48.7889
48.8178
48.8467
48.8754
48.9042
48.9328
48.9614
48.9898
49.0183
49.0466
49.0749
49.1031
49.1312
49.1593
49.1874
49.2154
49.2433
49.2713
49.2992
49.327
49.3548
49.3826
49.4104
49.4381
49.4658
49.4934
49.521
49.5485
49.5761
49.6035
49.6309
49.6583
49.6857
49.7129
49.7402
49.7674
49.7946
49.8218
49.8488
49.8758
49.9028
49.9297
49.9565
49.9832
50.0099
50.0365
50.063
50.0895
50.1159
50.1422
50.1685
50.1947
50.2209
50.2471
50.2732
50.2993
50.3253
50.3513
50.3774
50.4034
50.4294
50.4554
50.4815
50.5075
50.5336
50.5597
50.5858
50.6119
50.638
50.664
50.6901
50.7161
50.742
50.768
50.7938
50.8196
50.8453
50.871
50.8966
50.9221
50.9476
50.9729
50.9982
51.0234
51.0485
51.0735
51.0985
51.1232
51.148
51.1724
51.1969
51.2211
51.2453
51.2692
51.2931
51.3168
51.3404
51.3639
51.3872
51.4105
51.4336
51.4567
51.4795
51.5025
51.525
51.5479
51.5703
51.593
51.6153
51.6379
51.6601
51.6827
51.7047
51.727
51.7488
51.7709
51.7924
51.8143
51.8355
51.8572
51.878
51.8993
51.9198
51.9408
51.9608
51.9813
52.001
52.0211
52.0407
52.0609
52.0801
52.0998
52.1183
52.1373
52.1551
52.1736
52.1911
52.2093
52.2266
52.2443
52.2612
52.2787
52.2953
52.3127
52.3291
52.3463
52.362
52.3787
52.3938
52.4092
52.4232
52.4376
52.452
52.4659
52.4808
52.4955
52.5106
52.5255
52.5407
52.5556
52.5708
52.586
52.6007
52.6152
52.6298
52.6438
52.6584
52.6722
52.6868
52.7005
52.7144
52.7277
52.741
52.7537
52.7666
52.7793
52.7915
52.8049
52.8173
52.8307
52.8437
52.8573
52.8708
52.8843
52.897
52.9102
52.9234
52.9372
52.9515
52.9665
52.9809
52.9954
53.0086
53.0211
53.0338
53.0453
53.0574
53.0692
53.0809
53.0941
53.1073
53.123
53.1352
53.1503
53.162
53.1792
53.1908
53.2091
53.2207
53.2422
53.2519
53.2763
53.2856
53.2943
53.2751
53.2929
53.2834
53.2825
53.2881
53.3026
53.311
53.3345
53.3432
53.3297
53.3472
53.3241
53.3383
53.3234
53.3173
53.3224
53.3364
53.3492
53.3636
53.3799
53.3915
53.4075
53.4217
53.4345
53.4386
53.4606
53.4699
53.48
53.4871
53.4762
53.4932
53.475
53.4898
53.4811
53.4814
53.4851
53.4921
53.5055
53.5207
53.5256
53.5396
53.543
53.563
53.5556
53.5719
53.5665
53.5833
53.5708
53.5857
53.5804
53.5747
53.591
53.5965
53.5999
53.5657
53.5757
53.5546
53.5429
53.542
53.5493
53.5583
53.5666
53.5843
53.5969
53.6086
53.615
53.6345
53.6435
53.6527
53.6599
53.668
53.6735
53.6789
53.6613
53.6381
53.6523
53.6445
53.6499
53.6618
53.6699
53.6787
53.686
53.6788
53.6781
53.6783
53.6916
53.6944
53.7022
53.7051
53.7203
53.7069
53.7201
53.7262
53.7054
53.7179
53.7248
53.7275
53.7071
53.7206
53.7014
53.7149
53.7216
53.7266
53.7319
53.7088
53.7209
53.7266
53.7305
53.7356
53.7389
53.744
53.7477
53.7325
53.7232
53.7239
53.7323
53.7468
29.4889
29.373
29.2624
29.1668
29.0852
29.027
28.9879
28.9843
28.9958
29.0263
29.0833
29.159
29.251
29.3575
29.4758
29.6047
29.7421
29.8859
30.0352
30.1885
30.3447
30.5028
30.6619
30.8213
30.9802
31.1381
31.2945
31.449
31.6011
31.7507
31.8974
32.0411
32.1815
32.3185
32.452
32.582
32.7083
32.831
32.9499
33.0652
33.1767
33.2846
33.3889
33.4895
33.5866
33.6802
33.7703
33.857
33.9404
34.0206
34.0976
34.1715
34.2424
34.3103
34.3753
34.4376
34.4972
34.5541
34.6085
34.6604
34.7099
34.7571
34.802
34.8448
34.8855
34.9242
34.9609
34.9958
35.0288
35.0601
35.0898
35.1178
35.1442
35.1692
35.1928
35.2149
35.2358
35.2554
35.2738
35.291
35.3072
35.3222
35.3363
35.3494
35.3616
35.3729
35.3834
35.3931
35.4021
35.4104
35.4179
35.4249
35.4312
35.437
35.4422
35.447
35.4512
35.455
35.4584
35.4614
35.464
35.4663
35.4682
35.4699
35.4712
35.4723
35.4732
35.4738
35.4742
35.4744
35.4744
35.4743
35.474
35.4736
35.473
35.4724
35.4716
35.4708
35.4698
35.4688
35.4678
35.4667
35.4655
35.4644
35.4632
35.462
35.4608
35.4596
35.4584
35.4573
35.4561
35.4551
35.454
35.453
35.452
35.4511
35.4502
35.4495
35.4488
35.4482
35.4476
35.447
35.4465
35.4462
35.4463
35.4466
35.4472
35.448
35.4489
35.4501
35.4515
35.4531
35.455
35.4571
35.4595
35.4622
35.4652
35.4685
35.4722
35.4762
35.4806
35.4853
35.4904
35.4959
35.5018
35.5081
35.5148
35.5218
35.5293
35.5372
35.5454
35.554
35.563
35.5724
35.582
35.5919
35.6021
35.6123
35.6229
35.6336
35.6448
35.6562
35.6681
35.6802
35.6929
35.7054
35.7185
35.7318
35.7456
35.7592
35.7731
35.7868
35.8009
35.8152
35.8295
35.844
35.8585
35.873
35.8875
35.902
35.9169
35.9323
35.948
35.9641
35.9806
35.9974
36.0145
36.0318
36.0494
36.067
36.0849
36.1028
36.1208
36.1387
36.1567
36.1746
36.1925
36.2103
36.2281
36.246
36.2638
36.2817
36.2994
36.3173
36.335
36.3528
36.3704
36.388
36.4055
36.4231
36.4406
36.4582
36.4757
36.4933
36.5108
36.5284
36.5459
36.5633
36.5807
36.5982
36.6155
36.6329
36.6503
36.6678
36.6852
36.7027
36.7202
36.7377
36.7553
36.7729
36.7905
36.8082
36.8259
36.8437
36.8615
36.8794
36.8973
36.9152
36.9332
36.9512
36.9692
36.9872
37.0053
37.0234
37.0416
37.0597
37.078
37.0962
37.1146
37.1329
37.1513
37.1697
37.1882
37.2066
37.2251
37.2435
37.262
37.2805
37.299
37.3176
37.3362
37.3549
37.3736
37.3924
37.4112
37.4301
37.449
37.4681
37.4871
37.5062
37.5254
37.5445
37.5637
37.5829
37.6021
37.6213
37.6406
37.6599
37.6792
37.6985
37.7179
37.7373
37.7567
37.776
37.7954
37.8148
37.8342
37.8535
37.8729
37.8922
37.9116
37.9309
37.9502
37.9696
37.9889
38.0082
38.0276
38.0469
38.0662
38.0856
38.105
38.1244
38.1438
38.1633
38.1828
38.2023
38.2219
38.2416
38.2613
38.2811
38.301
38.3209
38.3409
38.3611
38.3813
38.4016
38.4219
38.4424
38.4629
38.4834
38.504
38.5246
38.5452
38.5659
38.5865
38.6072
38.6279
38.6485
38.6692
38.6898
38.7104
38.731
38.7517
38.7723
38.7929
38.8135
38.8341
38.8546
38.8751
38.8956
38.916
38.9363
38.9566
38.9768
38.9969
39.0169
39.0369
39.0568
39.0766
39.0964
39.1162
39.1358
39.1556
39.1752
39.195
39.2145
39.2343
39.254
39.2738
39.2936
39.3136
39.3335
39.3535
39.3734
39.3934
39.4132
39.4333
39.4531
39.4731
39.4928
39.5126
39.5321
39.5517
39.5711
39.5904
39.6096
39.6288
39.648
39.6672
39.6862
39.7051
39.7238
39.7424
39.7607
39.779
39.7973
39.8154
39.8335
39.8513
39.8692
39.887
39.9048
39.9227
39.9406
39.9583
39.976
39.9935
40.0109
40.0279
40.0447
40.061
40.0773
40.0931
40.1091
40.1247
40.1403
40.1556
40.1713
40.1869
40.2029
40.2191
40.2355
40.2518
40.2682
40.2842
40.3007
40.3165
40.3326
40.3479
40.3637
40.3789
40.3945
40.4092
40.4243
40.4386
40.4533
40.4676
40.4818
40.496
40.5101
40.5244
40.5381
40.5521
40.566
40.5804
40.5943
40.6095
40.6238
40.6395
40.654
40.6699
40.6844
40.6998
40.7138
40.7283
40.7419
40.755
40.7692
40.7802
40.7962
40.8073
40.823
40.8359
40.8515
40.8664
40.8827
40.8906
40.9153
40.9268
40.9389
40.9495
40.9576
40.9498
40.9486
40.9577
40.9651
40.9816
40.9922
41.012
41.0225
41.0452
41.0546
41.0633
41.047
41.0635
41.0528
41.0498
41.0551
41.0647
41.0777
41.0903
41.1034
41.1175
41.1293
41.1443
41.154
41.1702
41.1798
41.1968
41.2077
41.2144
41.2351
41.2436
41.2417
41.2353
41.2377
41.2464
41.2548
41.2668
41.2755
41.2908
41.3015
41.3188
41.3322
41.3399
41.3594
41.3513
41.3692
41.3764
41.3828
41.373
41.3894
41.395
41.4009
41.4044
41.4083
41.391
41.3614
41.3775
41.3687
41.3662
41.369
41.3775
41.388
41.3996
41.4114
41.4235
41.4367
41.4452
41.4693
41.4795
41.4825
41.484
41.5031
41.51
41.5166
41.4978
41.5107
41.5076
41.5027
41.5072
41.516
41.5255
41.5311
41.5382
41.556
41.5663
41.5766
41.5852
41.5825
41.601
41.6073
41.6034
41.6025
41.6071
41.6065
41.6226
41.6276
41.6311
41.6078
41.6194
41.6117
41.6038
41.6194
41.6252
41.6127
41.6281
41.6085
41.6234
41.6115
41.6059
41.61
41.6159
41.6264
41.6355
41.6469
41.658
41.6711
41.6803
41.6981
29.4891
29.3724
29.2566
29.1438
29.0343
28.9309
28.8335
28.7461
28.6684
28.6002
28.5429
28.4969
28.4615
28.4372
28.4216
28.4181
28.4213
28.4304
28.4487
28.4733
28.5036
28.5389
28.5785
28.6218
28.6683
28.7176
28.769
28.8222
28.8768
28.9324
28.9887
29.0455
29.1024
29.1592
29.2157
29.2717
29.3271
29.3818
29.4355
29.4882
29.5397
29.5901
29.6393
29.6871
29.7335
29.7785
29.8221
29.8642
29.9048
29.9439
29.9815
30.0176
30.0522
30.0853
30.1169
30.147
30.1757
30.2029
30.2287
30.2532
30.2762
30.2979
30.3183
30.3373
30.3552
30.3717
30.3871
30.4013
30.4143
30.4262
30.4371
30.4468
30.4556
30.4633
30.4701
30.4759
30.4808
30.4849
30.4881
30.4905
30.492
30.4929
30.4928
30.4923
30.4911
30.4891
30.4865
30.4833
30.4795
30.4752
30.4704
30.465
30.4591
30.4528
30.4461
30.4389
30.4313
30.4233
30.415
30.4064
30.3974
30.3881
30.3785
30.3686
30.3585
30.3482
30.3376
30.3268
30.3158
30.3046
30.2933
30.2817
30.2701