/*--------------------------------*- C++ -*----------------------------------*\
  =========                 |
  \\      /  F ield         | OpenFOAM: The Open Source CFD Toolbox
   \\    /   O peration     | Website:  https://openfoam.org
    \\  /    A nd           | Version:  7
     \\/     M anipulation  |
\*---------------------------------------------------------------------------*/
FoamFile
{
    version     2.0;
    format      ascii;
    class       volScalarField;
    location    "167";
    object      p;
}
// * * * * * * * * * * * * * * * * * * * * * * * * * * * * * * * * * * * * * //

dimensions      [0 2 -2 0 0 0 0];

internalField   nonuniform List<scalar> 
36000
(
0.284114
0.271146
0.261009
0.256259
0.253388
0.250511
0.247737
0.245401
0.243463
0.241755
0.240192
0.238754
0.237429
0.236198
0.235044
0.233954
0.23292
0.231934
0.23099
0.230084
0.229211
0.228368
0.227551
0.226758
0.225987
0.225235
0.224502
0.223784
0.223081
0.222393
0.221716
0.221052
0.220398
0.219754
0.21912
0.218493
0.217875
0.217265
0.216661
0.216064
0.215473
0.214887
0.214307
0.213732
0.213161
0.212595
0.212033
0.211475
0.210921
0.21037
0.209823
0.209279
0.208738
0.208199
0.207664
0.207131
0.206601
0.206073
0.205547
0.205023
0.204502
0.203983
0.203465
0.20295
0.202436
0.201925
0.201414
0.200906
0.200399
0.199894
0.19939
0.198888
0.198388
0.197888
0.197391
0.196894
0.196399
0.195905
0.195413
0.194922
0.194432
0.193944
0.193457
0.192971
0.192487
0.192004
0.191523
0.191043
0.190566
0.190091
0.189618
0.18915
0.188683
0.188213
0.187741
0.187267
0.186794
0.18632
0.185846
0.185372
0.184898
0.184425
0.183952
0.183479
0.183007
0.182535
0.182064
0.181594
0.181124
0.180655
0.180187
0.179719
0.179252
0.178786
0.178321
0.177856
0.177392
0.176929
0.176467
0.176005
0.175544
0.175085
0.174625
0.174167
0.17371
0.173253
0.172797
0.172342
0.171888
0.171435
0.170982
0.17053
0.170079
0.169629
0.16918
0.168731
0.168283
0.167836
0.16739
0.166944
0.166499
0.166055
0.165612
0.165169
0.164727
0.164286
0.163845
0.163405
0.162966
0.162528
0.16209
0.161653
0.161216
0.16078
0.160345
0.15991
0.159477
0.159043
0.158611
0.158179
0.157748
0.157318
0.156888
0.156459
0.156031
0.155603
0.155177
0.154751
0.154325
0.153901
0.153477
0.153054
0.152631
0.15221
0.151789
0.151369
0.150949
0.15053
0.150112
0.149694
0.149278
0.148861
0.148446
0.14803
0.147616
0.147201
0.146788
0.146374
0.145962
0.145549
0.145137
0.144726
0.144315
0.143905
0.143496
0.143087
0.142679
0.142271
0.141864
0.141458
0.141052
0.140646
0.140241
0.139836
0.139432
0.139028
0.138624
0.138221
0.137819
0.137417
0.137017
0.136616
0.136216
0.135816
0.135417
0.135018
0.13462
0.134223
0.133826
0.13343
0.133034
0.132639
0.132245
0.13185
0.131457
0.131064
0.130671
0.130279
0.129887
0.129496
0.129104
0.128714
0.128323
0.127933
0.127544
0.127155
0.126767
0.126379
0.125991
0.125603
0.125216
0.124829
0.124442
0.124056
0.12367
0.123285
0.1229
0.122515
0.12213
0.121747
0.121363
0.12098
0.120597
0.120215
0.119832
0.11945
0.119069
0.118688
0.118307
0.117926
0.117546
0.117166
0.116786
0.116406
0.116027
0.115648
0.11527
0.114891
0.114513
0.114135
0.113758
0.11338
0.113003
0.112626
0.112249
0.111873
0.111497
0.111121
0.110745
0.11037
0.109995
0.10962
0.109246
0.108872
0.108498
0.108124
0.10775
0.107377
0.107004
0.106631
0.106259
0.105887
0.105515
0.105143
0.104772
0.104401
0.10403
0.10366
0.103289
0.102919
0.10255
0.10218
0.101811
0.101442
0.101073
0.100705
0.100337
0.099969
0.0996015
0.0992342
0.0988671
0.0985002
0.0981336
0.0977673
0.0974012
0.0970353
0.0966697
0.0963043
0.0959391
0.0955741
0.0952094
0.0948448
0.0944805
0.0941165
0.0937527
0.0933892
0.0930259
0.0926627
0.0922998
0.091937
0.0915745
0.0912123
0.0908502
0.0904883
0.0901267
0.0897653
0.0894041
0.0890432
0.0886824
0.0883218
0.0879614
0.0876013
0.0872414
0.0868817
0.0865222
0.0861629
0.0858038
0.085445
0.0850865
0.0847281
0.0843699
0.0840119
0.083654
0.0832964
0.082939
0.0825817
0.0822244
0.0818673
0.0815103
0.0811536
0.080797
0.0804406
0.0800843
0.0797282
0.0793724
0.0790166
0.078661
0.0783056
0.0779503
0.0775953
0.0772404
0.0768857
0.0765312
0.0761769
0.0758229
0.0754693
0.0751159
0.0747628
0.0744102
0.0740578
0.0737055
0.0733535
0.0730018
0.0726506
0.0722997
0.0719492
0.0715991
0.0712493
0.0708998
0.0705504
0.0702012
0.0698519
0.0695025
0.069153
0.0688034
0.0684542
0.0681057
0.0677576
0.0674096
0.0670616
0.0667135
0.0663654
0.0660176
0.0656702
0.0653229
0.0649758
0.0646289
0.0642822
0.0639353
0.0635883
0.0632415
0.0628951
0.0625493
0.0622037
0.0618579
0.0615122
0.0611666
0.0608212
0.0604757
0.0601301
0.0597845
0.0594393
0.0590943
0.0587498
0.0584058
0.0580622
0.0577185
0.0573748
0.057031
0.0566874
0.0563442
0.0560014
0.0556593
0.0553177
0.0549766
0.0546353
0.054294
0.0539528
0.0536114
0.0532701
0.0529289
0.0525875
0.0522459
0.0519042
0.0515626
0.0512213
0.0508806
0.0505401
0.0501998
0.0498594
0.0495191
0.0491788
0.0488381
0.048497
0.0481562
0.0478159
0.0474762
0.0471369
0.0467977
0.0464585
0.0461193
0.04578
0.045441
0.0451023
0.0447639
0.0444257
0.0440878
0.0437502
0.0434126
0.0430749
0.042737
0.042399
0.0420609
0.0417229
0.0413853
0.0410479
0.0407107
0.0403737
0.0400367
0.0396998
0.0393629
0.039026
0.0386893
0.0383528
0.0380165
0.0376803
0.0373442
0.0370087
0.0366739
0.0363397
0.0360056
0.0356714
0.0353369
0.0350026
0.0346687
0.0343351
0.0340017
0.0336687
0.0333359
0.0330034
0.032671
0.0323386
0.032006
0.0316734
0.0313407
0.031008
0.0306752
0.0303425
0.0300099
0.0296772
0.0293447
0.0290121
0.0286795
0.0283469
0.0280144
0.0276818
0.0273494
0.027017
0.0266844
0.0263515
0.0260185
0.0256858
0.0253535
0.0250217
0.0246903
0.0243595
0.024029
0.0236987
0.0233687
0.0230387
0.0227085
0.022378
0.0220474
0.0217167
0.0213861
0.0210556
0.0207253
0.0203954
0.0200659
0.0197369
0.019408
0.0190792
0.0187505
0.0184219
0.0180932
0.0177641
0.017435
0.0171058
0.0167764
0.016447
0.0161176
0.0157884
0.0154593
0.0151303
0.0148014
0.0144725
0.0141439
0.0138155
0.0134873
0.0131592
0.012831
0.0125032
0.0121756
0.0118484
0.0115213
0.0111943
0.0108675
0.0105407
0.0102136
0.00988639
0.0095592
0.00923202
0.00890497
0.00857814
0.00825136
0.00792451
0.00759786
0.00727149
0.00694535
0.00661938
0.00629367
0.00596832
0.00564308
0.00531788
0.00499295
0.00466845
0.00434426
0.00402018
0.00369623
0.00337257
0.00304932
0.00272642
0.00240394
0.00208206
0.00176094
0.00144032
0.00112102
0.000800868
0.000487647
0.000150671
0.264562
0.259922
0.255627
0.253096
0.251228
0.24927
0.247296
0.245501
0.243892
0.242396
0.240978
0.239635
0.238365
0.237161
0.236015
0.234921
0.233873
0.232867
0.231901
0.230969
0.230069
0.229199
0.228355
0.227535
0.226738
0.225961
0.225203
0.224462
0.223738
0.223028
0.222332
0.221648
0.220976
0.220315
0.219664
0.219022
0.218389
0.217764
0.217147
0.216536
0.215933
0.215335
0.214744
0.214158
0.213577
0.213001
0.212429
0.211862
0.211299
0.21074
0.210184
0.209632
0.209083
0.208537
0.207995
0.207455
0.206918
0.206384
0.205852
0.205322
0.204795
0.20427
0.203748
0.203227
0.202708
0.202191
0.201677
0.201164
0.200652
0.200143
0.199635
0.199129
0.198624
0.198121
0.19762
0.197119
0.196621
0.196124
0.195628
0.195134
0.194641
0.19415
0.193659
0.193171
0.192684
0.192198
0.191713
0.19123
0.190749
0.190269
0.18979
0.189311
0.188832
0.188354
0.187876
0.187399
0.186923
0.186446
0.185971
0.185495
0.18502
0.184546
0.184072
0.183598
0.183125
0.182653
0.182181
0.18171
0.18124
0.18077
0.180301
0.179833
0.179365
0.178898
0.178432
0.177967
0.177503
0.177039
0.176576
0.176114
0.175653
0.175192
0.174732
0.174273
0.173815
0.173358
0.172902
0.172446
0.171991
0.171537
0.171084
0.170631
0.17018
0.169729
0.169279
0.16883
0.168381
0.167933
0.167486
0.16704
0.166595
0.16615
0.165706
0.165263
0.16482
0.164379
0.163938
0.163497
0.163058
0.162619
0.16218
0.161743
0.161306
0.16087
0.160434
0.159999
0.159565
0.159132
0.158699
0.158267
0.157836
0.157405
0.156975
0.156546
0.156117
0.15569
0.155262
0.154836
0.15441
0.153985
0.153561
0.153138
0.152715
0.152293
0.151871
0.15145
0.15103
0.150611
0.150192
0.149774
0.149356
0.148939
0.148523
0.148108
0.147692
0.147278
0.146864
0.14645
0.146037
0.145624
0.145212
0.1448
0.144389
0.143978
0.143568
0.143159
0.14275
0.142342
0.141935
0.141528
0.141121
0.140715
0.14031
0.139905
0.1395
0.139095
0.13869
0.138286
0.137884
0.137482
0.137082
0.136681
0.13628
0.13588
0.13548
0.135081
0.134681
0.134283
0.133886
0.13349
0.133094
0.132698
0.132303
0.131908
0.131514
0.131121
0.130727
0.130334
0.129942
0.12955
0.129159
0.128767
0.128376
0.127986
0.127596
0.127207
0.126818
0.12643
0.126042
0.125654
0.125266
0.124879
0.124492
0.124105
0.123719
0.123333
0.122948
0.122562
0.122178
0.121794
0.12141
0.121026
0.120643
0.12026
0.119878
0.119496
0.119114
0.118733
0.118351
0.11797
0.11759
0.117209
0.116829
0.11645
0.11607
0.115691
0.115312
0.114933
0.114555
0.114177
0.113799
0.113421
0.113044
0.112667
0.11229
0.111913
0.111537
0.111161
0.110785
0.11041
0.110035
0.10966
0.109285
0.108911
0.108537
0.108163
0.107789
0.107416
0.107043
0.10667
0.106297
0.105925
0.105553
0.105181
0.10481
0.104439
0.104068
0.103697
0.103327
0.102956
0.102587
0.102217
0.101848
0.101479
0.10111
0.100741
0.100373
0.100005
0.099637
0.0992695
0.0989022
0.0985352
0.0981684
0.0978018
0.0974356
0.0970695
0.0967037
0.0963381
0.0959728
0.0956077
0.0952429
0.0948782
0.0945137
0.0941495
0.0937856
0.0934219
0.0930584
0.0926952
0.0923321
0.0919692
0.0916066
0.0912444
0.0908823
0.0905202
0.0901584
0.0897969
0.0894357
0.0890747
0.0887139
0.0883532
0.0879927
0.0876325
0.0872725
0.0869128
0.0865532
0.0861938
0.0858347
0.0854758
0.0851171
0.0847586
0.0844002
0.0840419
0.0836838
0.0833262
0.0829687
0.0826115
0.0822542
0.0818968
0.0815397
0.081183
0.0808265
0.08047
0.0801135
0.0797574
0.0794016
0.0790455
0.0786894
0.0783336
0.0779784
0.0776235
0.0772688
0.0769146
0.0765603
0.0762059
0.0758516
0.0754977
0.0751445
0.0747916
0.0744389
0.0740863
0.0737339
0.0733816
0.0730299
0.0726789
0.0723281
0.0719773
0.0716269
0.0712769
0.0709271
0.0705775
0.070228
0.0698785
0.069529
0.0691791
0.0688289
0.0684791
0.0681304
0.0677825
0.0674347
0.0670868
0.0667389
0.0663911
0.0660436
0.0656963
0.0653488
0.0650015
0.0646543
0.064307
0.0639596
0.0636124
0.0632653
0.0629188
0.0625729
0.0622274
0.0618816
0.0615357
0.0611902
0.0608449
0.0604992
0.0601532
0.0598073
0.0594616
0.0591164
0.058772
0.0584286
0.0580854
0.057742
0.0573981
0.057054
0.0567099
0.0563659
0.0560225
0.0556801
0.0553387
0.0549979
0.0546569
0.0543157
0.053974
0.0536325
0.0532916
0.0529507
0.0526094
0.0522676
0.0519255
0.0515835
0.0512421
0.0509013
0.0505607
0.0502199
0.0498794
0.0495391
0.0491988
0.0488576
0.0485154
0.0481737
0.047833
0.0474934
0.0471547
0.046816
0.0464769
0.0461372
0.0457974
0.0454584
0.0451203
0.0447824
0.0444444
0.0441065
0.0437687
0.0434307
0.0430924
0.0427541
0.0424161
0.042078
0.0417398
0.041402
0.0410647
0.0407276
0.0403908
0.0400542
0.0397173
0.03938
0.0390427
0.0387062
0.03837
0.0380338
0.0376974
0.0373612
0.0370255
0.0366907
0.0363566
0.0360225
0.035688
0.0353535
0.0350193
0.0346854
0.0343515
0.0340177
0.0336844
0.0333515
0.0330189
0.0326862
0.0323535
0.0320208
0.0316879
0.0313549
0.0310218
0.0306888
0.0303561
0.0300236
0.0296913
0.0293592
0.0290269
0.0286943
0.0283614
0.0280285
0.0276955
0.0273629
0.0270307
0.0266981
0.0263649
0.0260315
0.0256984
0.0253659
0.025034
0.024703
0.0243723
0.0240416
0.0237112
0.0233813
0.0230513
0.022721
0.0223907
0.0220602
0.0217297
0.0213993
0.0210685
0.0207376
0.0204073
0.020078
0.0197492
0.0194204
0.0190915
0.0187627
0.0184342
0.0181056
0.0177766
0.0174473
0.0171179
0.0167885
0.0164589
0.0161294
0.0158002
0.0154711
0.015142
0.0148128
0.0144836
0.0141546
0.0138261
0.0134978
0.0131693
0.0128409
0.0125132
0.0121859
0.0118585
0.0115311
0.0112039
0.010877
0.0105503
0.0102236
0.00989663
0.00956944
0.00924222
0.00891512
0.00858824
0.00826152
0.00793486
0.00760829
0.00728174
0.00695525
0.00662898
0.00630314
0.00597768
0.00565251
0.0053276
0.00500281
0.00467813
0.00435365
0.0040294
0.0037053
0.00338139
0.00305765
0.00273424
0.0024115
0.00208942
0.00176794
0.00144678
0.00112691
0.000805965
0.000493175
0.000147101
0.257107
0.256542
0.254739
0.252641
0.250715
0.248851
0.247007
0.245258
0.243642
0.242139
0.240728
0.239398
0.238145
0.236961
0.235838
0.234767
0.233744
0.232763
0.231821
0.230912
0.230034
0.229184
0.228359
0.227557
0.226776
0.226014
0.225269
0.224541
0.223827
0.223126
0.222438
0.221762
0.221096
0.220441
0.219795
0.219157
0.218527
0.217905
0.21729
0.216682
0.216079
0.215483
0.214892
0.214306
0.213726
0.213149
0.212577
0.21201
0.211446
0.210886
0.210329
0.209776
0.209226
0.208679
0.208135
0.207594
0.207056
0.20652
0.205986
0.205455
0.204927
0.2044
0.203876
0.203354
0.202834
0.202315
0.201799
0.201285
0.200772
0.200261
0.199751
0.199244
0.198738
0.198233
0.19773
0.197229
0.196729
0.19623
0.195733
0.195238
0.194744
0.194251
0.193759
0.193269
0.192781
0.192294
0.191808
0.191323
0.19084
0.190358
0.189876
0.189393
0.188911
0.18843
0.187952
0.187474
0.186996
0.186519
0.186042
0.185566
0.18509
0.184615
0.18414
0.183665
0.183192
0.182719
0.182246
0.181774
0.181303
0.180833
0.180363
0.179894
0.179426
0.178959
0.178492
0.178026
0.177561
0.177097
0.176634
0.176171
0.175709
0.175249
0.174788
0.174329
0.173871
0.173413
0.172956
0.1725
0.172045
0.171591
0.171137
0.170685
0.170233
0.169782
0.169331
0.168882
0.168433
0.167985
0.167538
0.167091
0.166646
0.166201
0.165757
0.165313
0.164871
0.164429
0.163987
0.163547
0.163107
0.162668
0.16223
0.161792
0.161356
0.160919
0.160484
0.160049
0.159615
0.159182
0.158749
0.158317
0.157886
0.157455
0.157026
0.156597
0.156168
0.15574
0.155313
0.154887
0.154461
0.154037
0.153612
0.153189
0.152766
0.152344
0.151922
0.151501
0.151081
0.150661
0.150242
0.149824
0.149406
0.148989
0.148572
0.148156
0.147741
0.147326
0.146912
0.146498
0.146085
0.145672
0.145261
0.144849
0.144438
0.144028
0.143618
0.143208
0.142799
0.142391
0.141983
0.141576
0.141169
0.140763
0.140358
0.139953
0.139548
0.139143
0.13874
0.138336
0.137933
0.137531
0.137129
0.136727
0.136326
0.135926
0.135527
0.135128
0.134729
0.134331
0.133933
0.133536
0.133139
0.132744
0.132348
0.131953
0.131558
0.131164
0.130771
0.130378
0.129985
0.129593
0.129201
0.12881
0.128419
0.128028
0.127638
0.127248
0.126859
0.12647
0.126082
0.125693
0.125305
0.124918
0.124531
0.124143
0.123757
0.123371
0.122986
0.1226
0.122215
0.121831
0.121447
0.121063
0.12068
0.120297
0.119914
0.119531
0.11915
0.118768
0.118386
0.118005
0.117625
0.117244
0.116864
0.116484
0.116104
0.115725
0.115346
0.114967
0.114588
0.11421
0.113832
0.113454
0.113077
0.112699
0.112322
0.111946
0.111569
0.111193
0.110817
0.110441
0.110066
0.109691
0.109316
0.108942
0.108567
0.108193
0.10782
0.107446
0.107073
0.1067
0.106327
0.105955
0.105583
0.105211
0.104839
0.104468
0.104097
0.103726
0.103356
0.102986
0.102616
0.102246
0.101876
0.101507
0.101138
0.100769
0.100401
0.100033
0.099665
0.0992973
0.0989299
0.0985627
0.0981958
0.0978292
0.0974627
0.0970966
0.0967306
0.096365
0.0959995
0.0956343
0.0952692
0.0949044
0.0945399
0.0941756
0.0938116
0.0934477
0.0930841
0.0927208
0.0923576
0.0919947
0.0916321
0.0912697
0.0909075
0.0905455
0.0901836
0.089822
0.0894605
0.0890995
0.0887387
0.088378
0.0880174
0.0876571
0.0872971
0.0869373
0.0865776
0.0862182
0.085859
0.0855
0.0851412
0.0847827
0.0844242
0.0840659
0.0837078
0.0833501
0.0829925
0.0826349
0.0822773
0.0819199
0.0815629
0.0812063
0.0808497
0.0804931
0.0801368
0.0797808
0.0794248
0.0790687
0.0787127
0.0783571
0.0780021
0.0776475
0.0772929
0.0769384
0.0765839
0.0762293
0.0758749
0.0755212
0.075168
0.0748151
0.0744624
0.0741102
0.0737582
0.0734063
0.0730546
0.0727031
0.072352
0.0720014
0.0716514
0.0713015
0.0709517
0.0706017
0.0702518
0.0699018
0.0695519
0.0692019
0.0688515
0.0685016
0.0681524
0.0678042
0.0674567
0.0671092
0.0667614
0.0664139
0.0660666
0.065719
0.0653714
0.0650242
0.0646772
0.0643296
0.0639813
0.0636335
0.0632868
0.0629411
0.0625958
0.0622501
0.0619037
0.0615572
0.0612117
0.0608666
0.0605206
0.0601738
0.0598275
0.0594826
0.0591385
0.0587951
0.0584519
0.0581085
0.0577642
0.0574193
0.0570744
0.0567296
0.0563857
0.0560429
0.0557015
0.0553607
0.0550197
0.0546784
0.0543366
0.0539945
0.0536526
0.0533111
0.0529701
0.052629
0.0522869
0.0519439
0.0516019
0.0512614
0.0509214
0.0505805
0.0502392
0.0498989
0.0495591
0.0492186
0.048877
0.0485349
0.0481928
0.0478511
0.0475105
0.0471717
0.0468341
0.046496
0.0461565
0.0458162
0.0454762
0.0451372
0.0447989
0.0444609
0.0441238
0.0437869
0.0434494
0.0431107
0.0427718
0.0424336
0.042096
0.0417586
0.0414209
0.0410831
0.0407457
0.0404089
0.0400723
0.039735
0.0393967
0.0390586
0.0387217
0.0383855
0.0380493
0.0377129
0.0373767
0.0370413
0.0367071
0.0363739
0.0360398
0.0357041
0.0353684
0.035034
0.0347006
0.0343672
0.0340334
0.0336997
0.0333666
0.0330338
0.0327011
0.0323683
0.0320355
0.0317027
0.03137
0.0310373
0.0307047
0.0303715
0.0300382
0.0297052
0.0293727
0.0290405
0.0287081
0.0283752
0.0280419
0.0277088
0.0273762
0.0270442
0.0267117
0.0263778
0.0260437
0.0257102
0.0253777
0.0250465
0.0247162
0.0243861
0.0240561
0.0237261
0.0233955
0.0230648
0.0227342
0.0224037
0.0220731
0.0217424
0.0214116
0.0210805
0.0207495
0.0204191
0.0200896
0.0197607
0.019432
0.0191034
0.0187748
0.0184462
0.0181174
0.0177884
0.0174591
0.0171295
0.0167996
0.0164699
0.0161403
0.0158111
0.0154824
0.0151539
0.014825
0.0144958
0.0141666
0.0138377
0.0135086
0.0131791
0.0128504
0.0125233
0.0121967
0.0118695
0.0115422
0.011215
0.0108879
0.0105611
0.0102344
0.00990742
0.0095801
0.00925243
0.00892507
0.00859813
0.00827129
0.00794468
0.00761819
0.00729165
0.0069651
0.00663895
0.00631303
0.00598711
0.00566169
0.00533683
0.00501217
0.00468755
0.00436291
0.00403826
0.00371396
0.00338999
0.00306613
0.0027425
0.00241934
0.00209666
0.00177443
0.0014526
0.00113227
0.000810463
0.000497865
0.000144315
0.253597
0.253233
0.251902
0.250198
0.248601
0.24709
0.245589
0.244127
0.242739
0.241426
0.240176
0.238981
0.237838
0.236745
0.235696
0.234687
0.233714
0.232775
0.231867
0.230986
0.230132
0.2293
0.228491
0.227701
0.22693
0.226175
0.225437
0.224713
0.224002
0.223304
0.222618
0.221942
0.221277
0.220621
0.219974
0.219336
0.218705
0.218081
0.217464
0.216854
0.216249
0.215651
0.215057
0.214469
0.213886
0.213307
0.212733
0.212163
0.211596
0.211034
0.210474
0.209919
0.209366
0.208817
0.208271
0.207727
0.207186
0.206648
0.206112
0.205579
0.205048
0.20452
0.203993
0.203469
0.202947
0.202426
0.201908
0.201392
0.200877
0.200364
0.199853
0.199344
0.198836
0.19833
0.197825
0.197322
0.196821
0.196321
0.195822
0.195325
0.194829
0.194335
0.193842
0.193351
0.192861
0.192372
0.191885
0.191398
0.190913
0.190429
0.189946
0.189463
0.188981
0.1885
0.188021
0.187541
0.187063
0.186584
0.186107
0.18563
0.185153
0.184677
0.184201
0.183726
0.183252
0.182778
0.182306
0.181833
0.181362
0.180891
0.180421
0.179952
0.179483
0.179016
0.178549
0.178083
0.177617
0.177153
0.176689
0.176226
0.175764
0.175303
0.174843
0.174383
0.173924
0.173466
0.173009
0.172553
0.172098
0.171643
0.171189
0.170736
0.170284
0.169832
0.169381
0.168932
0.168483
0.168034
0.167587
0.16714
0.166694
0.166249
0.165804
0.165361
0.164918
0.164475
0.164034
0.163593
0.163153
0.162714
0.162276
0.161838
0.161401
0.160964
0.160529
0.160094
0.15966
0.159226
0.158794
0.158362
0.15793
0.1575
0.15707
0.156641
0.156212
0.155785
0.155357
0.154931
0.154505
0.15408
0.153656
0.153233
0.15281
0.152387
0.151966
0.151545
0.151124
0.150704
0.150285
0.149866
0.149448
0.149031
0.148614
0.148197
0.147782
0.147367
0.146952
0.146538
0.146125
0.145712
0.1453
0.144889
0.144478
0.144067
0.143657
0.143248
0.142839
0.14243
0.142022
0.141615
0.141208
0.140802
0.140396
0.13999
0.139586
0.139182
0.138779
0.138377
0.137973
0.13757
0.137168
0.136767
0.136366
0.135966
0.135567
0.135168
0.13477
0.134372
0.133974
0.133576
0.133179
0.132783
0.132388
0.131993
0.131598
0.131203
0.130809
0.130416
0.130023
0.129631
0.129238
0.128847
0.128456
0.128065
0.127675
0.127284
0.126895
0.126505
0.126116
0.125728
0.12534
0.124952
0.124565
0.124178
0.123792
0.123405
0.12302
0.122634
0.122249
0.121864
0.12148
0.121096
0.120712
0.120329
0.119946
0.119563
0.11918
0.118798
0.118417
0.118035
0.117654
0.117273
0.116893
0.116512
0.116132
0.115753
0.115373
0.114994
0.114616
0.114237
0.113859
0.113481
0.113103
0.112726
0.112349
0.111972
0.111595
0.111219
0.110843
0.110467
0.110092
0.109717
0.109342
0.108967
0.108592
0.108218
0.107844
0.107471
0.107098
0.106725
0.106352
0.105979
0.105607
0.105235
0.104864
0.104492
0.104121
0.10375
0.10338
0.103009
0.102639
0.102269
0.1019
0.101531
0.101161
0.100793
0.100424
0.100056
0.0996879
0.0993201
0.0989526
0.0985853
0.0982183
0.0978515
0.0974849
0.0971186
0.0967526
0.0963868
0.0960212
0.0956558
0.0952907
0.0949259
0.0945613
0.094197
0.0938329
0.0934689
0.0931052
0.0927417
0.0923786
0.0920157
0.0916529
0.0912903
0.0909279
0.0905659
0.090204
0.0898423
0.0894808
0.0891196
0.0887587
0.088398
0.0880375
0.0876771
0.0873169
0.0869569
0.0865973
0.0862379
0.0858788
0.0855197
0.0851607
0.0848018
0.0844434
0.0840855
0.0837275
0.0833694
0.0830115
0.0826539
0.0822964
0.0819393
0.0815826
0.081226
0.0808693
0.0805127
0.0801567
0.0798008
0.0794448
0.079089
0.0787337
0.0783785
0.0780233
0.0776686
0.077314
0.0769594
0.076605
0.0762508
0.0758968
0.0755431
0.0751896
0.0748364
0.0744838
0.0741317
0.0737798
0.0734283
0.0730768
0.072725
0.0723735
0.0720225
0.0716718
0.0713214
0.070971
0.0706203
0.0702695
0.0699194
0.0695698
0.0692204
0.0688713
0.0685223
0.0681732
0.0678243
0.0674761
0.0671282
0.0667803
0.0664327
0.0660852
0.0657375
0.0653901
0.0650433
0.0646965
0.064349
0.064001
0.0636537
0.0633076
0.0629624
0.0626168
0.0622704
0.0619236
0.0615773
0.0612318
0.0608864
0.0605402
0.0601936
0.0598479
0.0595039
0.0591608
0.0588176
0.0584737
0.0581287
0.0577828
0.057437
0.057092
0.0567481
0.0564054
0.0560639
0.0557229
0.0553815
0.0550396
0.0546976
0.0543555
0.0540132
0.0536703
0.0533275
0.0529859
0.0526454
0.052304
0.0519618
0.0516203
0.0512798
0.0509396
0.0505986
0.0502575
0.0499173
0.0495774
0.0492362
0.048895
0.0485553
0.0482151
0.0478733
0.0475309
0.0471898
0.046851
0.046513
0.0461744
0.0458351
0.0454951
0.0451547
0.0448153
0.0444776
0.0441413
0.0438051
0.0434675
0.0431284
0.0427892
0.0424507
0.0421139
0.0417776
0.0414398
0.0411008
0.0407629
0.0404263
0.0400896
0.039752
0.039414
0.0390768
0.03874
0.0384025
0.0380642
0.0377267
0.0373907
0.0370566
0.0367241
0.0363916
0.0360572
0.0357205
0.0353838
0.0350484
0.0347146
0.0343819
0.0340492
0.0337157
0.0333819
0.0330484
0.0327153
0.0323823
0.0320494
0.031717
0.0313845
0.031052
0.0307195
0.0303864
0.0300528
0.0297197
0.0293868
0.0290542
0.0287218
0.0283891
0.028056
0.0277229
0.0273905
0.0270585
0.0267258
0.0263919
0.0260578
0.0257244
0.0253919
0.0250604
0.0247301
0.0244008
0.0240719
0.0237419
0.0234105
0.0230785
0.022747
0.022416
0.0220851
0.0217541
0.0214232
0.0210924
0.0207615
0.0204312
0.0201016
0.0197727
0.0194442
0.0191159
0.0187874
0.0184587
0.0181296
0.0178005
0.0174711
0.0171408
0.0168109
0.0164816
0.0161525
0.0158228
0.0154936
0.015165
0.0148368
0.014508
0.0141781
0.0138482
0.0135185
0.0131891
0.0128609
0.012534
0.0122074
0.0118804
0.0115533
0.0112263
0.0108993
0.0105725
0.0102456
0.00991853
0.00959092
0.00926275
0.00893509
0.00860809
0.00828157
0.00795529
0.00762875
0.00730218
0.00697579
0.00664983
0.00632375
0.00599732
0.00567121
0.0053458
0.00502095
0.00469645
0.00437154
0.0040463
0.00372178
0.00339796
0.00307413
0.00275022
0.00242667
0.00210363
0.0017807
0.00145759
0.00113613
0.000813365
0.00049993
0.000141927
0.250848
0.250541
0.249645
0.24842
0.247152
0.245884
0.244595
0.243309
0.242059
0.240854
0.239691
0.23857
0.237489
0.236447
0.235442
0.234472
0.233533
0.232623
0.23174
0.230882
0.230048
0.229235
0.228441
0.227666
0.226907
0.226165
0.225436
0.224722
0.22402
0.223329
0.222649
0.22198
0.22132
0.220669
0.220026
0.219391
0.218764
0.218143
0.217529
0.21692
0.216318
0.215721
0.215129
0.214542
0.21396
0.213382
0.212808
0.212238
0.211672
0.21111
0.210551
0.209995
0.209443
0.208893
0.208347
0.207803
0.207262
0.206723
0.206187
0.205654
0.205122
0.204593
0.204066
0.203541
0.203018
0.202498
0.201979
0.201462
0.200946
0.200433
0.199921
0.199411
0.198902
0.198396
0.19789
0.197387
0.196884
0.196384
0.195885
0.195387
0.19489
0.194395
0.193902
0.19341
0.192919
0.192429
0.191941
0.191454
0.190967
0.190482
0.189998
0.189515
0.189032
0.18855
0.188069
0.187589
0.187109
0.18663
0.186152
0.185674
0.185197
0.184721
0.184245
0.183769
0.183295
0.182821
0.182348
0.181875
0.181403
0.180932
0.180462
0.179992
0.179524
0.179056
0.178588
0.178122
0.177656
0.177192
0.176728
0.176265
0.175802
0.175341
0.17488
0.17442
0.173961
0.173503
0.173046
0.172589
0.172133
0.171678
0.171224
0.170771
0.170318
0.169867
0.169416
0.168966
0.168516
0.168068
0.16762
0.167173
0.166727
0.166281
0.165837
0.165393
0.164949
0.164507
0.164065
0.163624
0.163184
0.162745
0.162306
0.161868
0.161431
0.160994
0.160559
0.160124
0.159689
0.159256
0.158823
0.158391
0.15796
0.157529
0.157099
0.15667
0.156242
0.155814
0.155387
0.15496
0.154535
0.15411
0.153686
0.153262
0.152839
0.152417
0.151995
0.151574
0.151154
0.150734
0.150315
0.149896
0.149478
0.149061
0.148644
0.148228
0.147812
0.147397
0.146982
0.146568
0.146155
0.145742
0.14533
0.144918
0.144507
0.144097
0.143687
0.143277
0.142868
0.14246
0.142052
0.141645
0.141238
0.140831
0.140425
0.14002
0.139616
0.139212
0.138809
0.138406
0.138003
0.137601
0.137199
0.136798
0.136398
0.135998
0.135598
0.135199
0.134801
0.134403
0.134005
0.133608
0.133211
0.132815
0.132419
0.132024
0.131629
0.131234
0.13084
0.130446
0.130053
0.12966
0.129268
0.128877
0.128485
0.128094
0.127703
0.127313
0.126923
0.126533
0.126144
0.125756
0.125368
0.12498
0.124593
0.124206
0.123819
0.123433
0.123047
0.122661
0.122276
0.12189
0.121506
0.121121
0.120737
0.120354
0.11997
0.119587
0.119205
0.118822
0.11844
0.118059
0.117677
0.117296
0.116915
0.116535
0.116155
0.115775
0.115395
0.115016
0.114637
0.114258
0.11388
0.113502
0.113124
0.112747
0.112369
0.111992
0.111616
0.111239
0.110863
0.110487
0.110112
0.109737
0.109362
0.108987
0.108612
0.108238
0.107864
0.107491
0.107117
0.106744
0.106371
0.105999
0.105626
0.105254
0.104883
0.104511
0.10414
0.103769
0.103398
0.103028
0.102658
0.102288
0.101918
0.101549
0.10118
0.100811
0.100443
0.100074
0.0997062
0.0993383
0.0989707
0.0986034
0.0982362
0.0978693
0.0975026
0.0971362
0.0967701
0.0964041
0.0960384
0.095673
0.0953079
0.0949431
0.0945785
0.094214
0.0938498
0.0934857
0.0931219
0.0927584
0.0923952
0.0920322
0.0916693
0.0913065
0.0909441
0.0905819
0.09022
0.0898584
0.0894969
0.0891356
0.0887745
0.0884137
0.0880532
0.0876927
0.0873324
0.0869725
0.0866129
0.0862535
0.0858941
0.0855349
0.0851758
0.084817
0.0844587
0.0841007
0.0837425
0.0833844
0.0830264
0.0826689
0.0823118
0.081955
0.0815982
0.0812413
0.0808847
0.0805284
0.0801722
0.0798162
0.0794603
0.0791049
0.07875
0.0783951
0.0780401
0.0776852
0.0773306
0.0769761
0.0766219
0.0762682
0.0759149
0.0755616
0.0752085
0.0748556
0.0745029
0.0741503
0.073798
0.0734461
0.0730943
0.0727427
0.0723914
0.0720402
0.0716889
0.0713374
0.070986
0.070635
0.0702845
0.0699347
0.0695855
0.069237
0.068889
0.0685407
0.0681918
0.0678425
0.0674932
0.0671446
0.0667964
0.0664486
0.0661008
0.0657536
0.0654066
0.0650596
0.0647123
0.0643654
0.0640193
0.0636733
0.0633271
0.0629806
0.0626338
0.0622868
0.0619404
0.061595
0.0612496
0.0609037
0.060558
0.060213
0.0598685
0.0595244
0.0591806
0.0588362
0.0584908
0.0581449
0.0577995
0.0574554
0.0571123
0.0567697
0.0564272
0.0560843
0.0557408
0.0553973
0.0550547
0.0547129
0.0543713
0.0540288
0.0536855
0.0533426
0.053001
0.0526606
0.0523204
0.0519798
0.0516385
0.051297
0.0509558
0.0506151
0.050275
0.0499349
0.0495934
0.0492512
0.048911
0.0485731
0.048235
0.0478952
0.047553
0.0472097
0.0468676
0.0465283
0.046191
0.0458544
0.0455165
0.0451765
0.0448357
0.044496
0.0441579
0.0438207
0.0434825
0.0431429
0.0428039
0.0424667
0.0421307
0.0417942
0.041456
0.0411172
0.0407795
0.0404426
0.0401053
0.0397682
0.0394324
0.0390965
0.0387592
0.0384199
0.0380801
0.0377426
0.0374081
0.0370759
0.0367441
0.0364104
0.0360749
0.0357383
0.0354018
0.0350658
0.0347307
0.0343973
0.0340649
0.0337319
0.0333984
0.0330646
0.0327308
0.0323966
0.0320622
0.0317285
0.0313953
0.0310624
0.0307301
0.0303981
0.0300663
0.0297342
0.0294016
0.0290695
0.0287376
0.0284053
0.0280722
0.0277386
0.0274057
0.0270733
0.0267406
0.0264076
0.0260745
0.0257413
0.0254086
0.0250766
0.0247457
0.024416
0.0240866
0.023756
0.0234241
0.0230917
0.0227598
0.0224284
0.0220974
0.0217663
0.0214353
0.0211048
0.0207744
0.0204445
0.0201151
0.019786
0.0194574
0.0191291
0.0188003
0.0184707
0.0181411
0.017812
0.0174827
0.0171533
0.0168243
0.0164956
0.0161661
0.0158348
0.0155037
0.0151745
0.0148469
0.0145186
0.0141886
0.0138581
0.013529
0.0132015
0.0128742
0.0125466
0.0122192
0.0118917
0.0115638
0.0112366
0.0109101
0.0105836
0.0102567
0.00992938
0.00960165
0.00927391
0.00894686
0.0086203
0.00829421
0.00796802
0.00764135
0.00731442
0.00698734
0.00666057
0.00633414
0.0060078
0.00568136
0.00535535
0.00503011
0.00470522
0.00437994
0.00405455
0.00372995
0.00340602
0.00308245
0.00275903
0.0024353
0.00211129
0.00178724
0.00146306
0.00114032
0.000816047
0.000500767
0.000140692
0.248567
0.248351
0.247739
0.246832
0.245808
0.244732
0.243618
0.242488
0.241366
0.240266
0.239192
0.238146
0.23713
0.236143
0.235185
0.234255
0.233351
0.232471
0.231615
0.230781
0.229966
0.229171
0.228393
0.227631
0.226885
0.226153
0.225434
0.224728
0.224033
0.223349
0.222675
0.22201
0.221354
0.220707
0.220067
0.219435
0.21881
0.218191
0.217579
0.216972
0.216371
0.215775
0.215184
0.214597
0.214015
0.213438
0.212864
0.212295
0.211729
0.211166
0.210607
0.210051
0.209498
0.208948
0.208401
0.207857
0.207316
0.206777
0.20624
0.205706
0.205174
0.204644
0.204117
0.203591
0.203068
0.202546
0.202027
0.201509
0.200993
0.200479
0.199967
0.199456
0.198947
0.19844
0.197934
0.19743
0.196927
0.196426
0.195926
0.195428
0.194931
0.194435
0.193941
0.193448
0.192956
0.192466
0.191977
0.191489
0.191002
0.190516
0.190032
0.189548
0.189064
0.188582
0.188101
0.18762
0.18714
0.186661
0.186182
0.185704
0.185227
0.18475
0.184274
0.183798
0.183324
0.182849
0.182376
0.181904
0.181432
0.180961
0.18049
0.180021