/*--------------------------------*- C++ -*----------------------------------*\
  =========                 |
  \\      /  F ield         | OpenFOAM: The Open Source CFD Toolbox
   \\    /   O peration     | Website:  https://openfoam.org
    \\  /    A nd           | Version:  7
     \\/     M anipulation  |
\*---------------------------------------------------------------------------*/
FoamFile
{
    version     2.0;
    format      ascii;
    class       surfaceScalarField;
    location    "167";
    object      phi;
}
// * * * * * * * * * * * * * * * * * * * * * * * * * * * * * * * * * * * * * //

dimensions      [0 3 -1 0 0 0 0];

internalField   nonuniform List<scalar> 
71340
(
0.00614729
1.93811e-05
0.00611784
2.94431e-05
0.00608483
3.30173e-05
0.00604978
3.50484e-05
0.00601336
3.64138e-05
0.0059764
3.69674e-05
0.00593956
3.68383e-05
0.00590323
3.63317e-05
0.00586758
3.56494e-05
0.00583271
3.48671e-05
0.00579868
3.4026e-05
0.00576553
3.31486e-05
0.00573328
3.2256e-05
0.00570191
3.13651e-05
0.00567143
3.04847e-05
0.00564181
2.96201e-05
0.00561303
2.8775e-05
0.00558508
2.79517e-05
0.00555793
2.71517e-05
0.00553155
2.63756e-05
0.00550593
2.56237e-05
0.00548103
2.4896e-05
0.00545684
2.41921e-05
0.00543333
2.35118e-05
0.00541048
2.28544e-05
0.00538826
2.22195e-05
0.00536665
2.16064e-05
0.00534564
2.10145e-05
0.00532519
2.04431e-05
0.0053053
1.98916e-05
0.00528594
1.93592e-05
0.0052671
1.88454e-05
0.00524875
1.83494e-05
0.00523088
1.78707e-05
0.00521347
1.74086e-05
0.00519651
1.69626e-05
0.00517997
1.65322e-05
0.00516386
1.61167e-05
0.00514814
1.57156e-05
0.00513281
1.53285e-05
0.00511786
1.49548e-05
0.00510326
1.4594e-05
0.00508902
1.42457e-05
0.00507511
1.39094e-05
0.00506152
1.35847e-05
0.00504825
1.32711e-05
0.00503528
1.29682e-05
0.00502261
1.26757e-05
0.00501022
1.23931e-05
0.0049981
1.21201e-05
0.00498624
1.18563e-05
0.00497464
1.16014e-05
0.00496328
1.1355e-05
0.00495217
1.11168e-05
0.00494128
1.08865e-05
0.00493062
1.06638e-05
0.00492017
1.04484e-05
0.00490993
1.02401e-05
0.00489989
1.00385e-05
0.00489005
9.84341e-06
0.00488039
9.65457e-06
0.00487092
9.47176e-06
0.00486162
9.29473e-06
0.0048525
9.12327e-06
0.00484354
8.95717e-06
0.00483475
8.79622e-06
0.00482611
8.64022e-06
0.00481762
8.48898e-06
0.00480928
8.34234e-06
0.00480108
8.2001e-06
0.00479301
8.06212e-06
0.00478509
7.92823e-06
0.00477729
7.79827e-06
0.00476962
7.67211e-06
0.00476207
7.5496e-06
0.00475463
7.4306e-06
0.00474732
7.31501e-06
0.00474012
7.20269e-06
0.00473302
7.09355e-06
0.00472604
6.98747e-06
0.00471915
6.88437e-06
0.00471237
6.78417e-06
0.00470568
6.68681e-06
0.00469909
6.59224e-06
0.00469259
6.50047e-06
0.00468618
6.41153e-06
0.00467985
6.32558e-06
0.00467361
6.24293e-06
0.00466744
6.16425e-06
0.00466135
6.09098e-06
0.00465533
6.02542e-06
0.00464936
5.96818e-06
0.00464344
5.919e-06
0.00463756
5.87623e-06
0.00463173
5.83674e-06
0.00462593
5.79927e-06
0.00462016
5.76324e-06
0.00461444
5.72813e-06
0.00460874
5.69348e-06
0.00460308
5.659e-06
0.00459746
5.62452e-06
0.00459187
5.58993e-06
0.00458631
5.55516e-06
0.00458079
5.52017e-06
0.00457531
5.48493e-06
0.00456986
5.44944e-06
0.00456445
5.41368e-06
0.00455907
5.37767e-06
0.00455373
5.34141e-06
0.00454842
5.30492e-06
0.00454315
5.26822e-06
0.00453792
5.23132e-06
0.00453273
5.19424e-06
0.00452757
5.15701e-06
0.00452245
5.11964e-06
0.00451737
5.08217e-06
0.00451233
5.0446e-06
0.00450732
5.00696e-06
0.00450235
4.96928e-06
0.00449742
4.93157e-06
0.00449252
4.89386e-06
0.00448767
4.85617e-06
0.00448285
4.81851e-06
0.00447807
4.78092e-06
0.00447332
4.74342e-06
0.00446862
4.70601e-06
0.00446395
4.66873e-06
0.00445932
4.63159e-06
0.00445472
4.59461e-06
0.00445017
4.55781e-06
0.00444564
4.5212e-06
0.00444116
4.4848e-06
0.00443671
4.44861e-06
0.0044323
4.41266e-06
0.00442792
4.37694e-06
0.00442358
4.34146e-06
0.00441927
4.30622e-06
0.004415
4.27122e-06
0.00441077
4.23646e-06
0.00440656
4.20193e-06
0.0044024
4.16762e-06
0.00439826
4.13351e-06
0.00439416
4.09959e-06
0.0043901
4.06585e-06
0.00438607
4.03226e-06
0.00438207
3.99881e-06
0.0043781
3.9655e-06
0.00437417
3.93231e-06
0.00437027
3.8992e-06
0.0043664
3.86617e-06
0.00436257
3.83317e-06
0.00435877
3.80019e-06
0.004355
3.76721e-06
0.00435127
3.7342e-06
0.00434757
3.70116e-06
0.0043439
3.66807e-06
0.00434026
3.63492e-06
0.00433666
3.6017e-06
0.00433309
3.56842e-06
0.00432956
3.53507e-06
0.00432606
3.50166e-06
0.00432259
3.46822e-06
0.00431915
3.43475e-06
0.00431575
3.40127e-06
0.00431238
3.36781e-06
0.00430905
3.33441e-06
0.00430575
3.3011e-06
0.00430248
3.26793e-06
0.00429925
3.23495e-06
0.00429604
3.2022e-06
0.00429287
3.16973e-06
0.00428974
3.1376e-06
0.00428663
3.10584e-06
0.00428355
3.07451e-06
0.00428051
3.04364e-06
0.0042775
3.01327e-06
0.00427451
2.98337e-06
0.00427156
2.954e-06
0.00426864
2.9251e-06
0.00426574
2.89658e-06
0.00426287
2.86856e-06
0.00426003
2.84087e-06
0.00425722
2.81317e-06
0.00425443
2.78596e-06
0.00425167
2.75956e-06
0.00424894
2.73361e-06
0.00424623
2.70779e-06
0.00424355
2.6817e-06
0.00424089
2.65612e-06
0.00423826
2.63178e-06
0.00423565
2.60738e-06
0.00423307
2.58251e-06
0.00423051
2.55784e-06
0.00422798
2.53298e-06
0.00422547
2.50832e-06
0.00422299
2.48434e-06
0.00422052
2.46099e-06
0.00421809
2.43757e-06
0.00421567
2.41373e-06
0.00421328
2.39042e-06
0.00421091
2.36717e-06
0.00420857
2.34402e-06
0.00420625
2.32084e-06
0.00420395
2.29744e-06
0.00420168
2.27533e-06
0.00419942
2.25389e-06
0.00419719
2.23265e-06
0.00419498
2.21259e-06
0.00419278
2.19257e-06
0.00419061
2.17143e-06
0.00418846
2.15e-06
0.00418633
2.12979e-06
0.00418422
2.11069e-06
0.00418213
2.09161e-06
0.00418006
2.07263e-06
0.004178
2.0547e-06
0.00417597
2.0379e-06
0.00417394
2.02091e-06
0.00417194
2.00386e-06
0.00416995
1.98651e-06
0.00416799
1.96874e-06
0.00416603
1.95229e-06
0.0041641
1.93769e-06
0.00416217
1.92377e-06
0.00416026
1.9091e-06
0.00415837
1.89372e-06
0.00415649
1.87859e-06
0.00415463
1.86421e-06
0.00415278
1.85013e-06
0.00415094
1.83584e-06
0.00414912
1.82205e-06
0.00414731
1.80994e-06
0.00414551
1.79844e-06
0.00414372
1.78628e-06
0.00414195
1.77355e-06
0.00414019
1.76052e-06
0.00413844
1.74779e-06
0.00413671
1.73592e-06
0.00413498
1.72479e-06
0.00413327
1.71337e-06
0.00413157
1.70165e-06
0.00412988
1.69096e-06
0.0041282
1.68136e-06
0.00412652
1.67159e-06
0.00412486
1.66113e-06
0.00412321
1.65089e-06
0.00412157
1.64166e-06
0.00411994
1.63261e-06
0.00411832
1.62259e-06
0.0041167
1.61224e-06
0.0041151
1.60263e-06
0.00411351
1.59341e-06
0.00411192
1.5839e-06
0.00411035
1.5745e-06
0.00410878
1.56553e-06
0.00410723
1.55661e-06
0.00410568
1.54743e-06
0.00410414
1.53833e-06
0.00410261
1.52982e-06
0.00410109
1.52129e-06
0.00409958
1.51258e-06
0.00409807
1.50416e-06
0.00409658
1.49615e-06
0.00409509
1.48822e-06
0.00409361
1.48016e-06
0.00409214
1.47236e-06
0.00409067
1.46489e-06
0.00408922
1.45759e-06
0.00408777
1.45022e-06
0.00408632
1.44294e-06
0.00408489
1.43591e-06
0.00408346
1.42903e-06
0.00408204
1.42246e-06
0.00408062
1.41582e-06
0.00407921
1.40905e-06
0.00407781
1.40246e-06
0.00407641
1.39592e-06
0.00407502
1.38969e-06
0.00407364
1.38336e-06
0.00407226
1.37676e-06
0.00407089
1.37036e-06
0.00406953
1.36389e-06
0.00406817
1.35729e-06
0.00406682
1.35068e-06
0.00406548
1.3441e-06
0.00406414
1.33759e-06
0.00406281
1.33111e-06
0.00406148
1.32465e-06
0.00406016
1.31819e-06
0.00405885
1.31173e-06
0.00405755
1.30526e-06
0.00405625
1.29878e-06
0.00405496
1.2923e-06
0.00405367
1.28582e-06
0.00405239
1.27933e-06
0.00405112
1.27284e-06
0.00404985
1.26634e-06
0.00404859
1.2598e-06
0.00404734
1.25322e-06
0.00404609
1.24672e-06
0.00404485
1.24038e-06
0.00404362
1.23404e-06
0.00404239
1.22781e-06
0.00404117
1.22185e-06
0.00403995
1.21602e-06
0.00403874
1.2102e-06
0.00403754
1.20441e-06
0.00403634
1.19867e-06
0.00403515
1.19301e-06
0.00403396
1.18747e-06
0.00403278
1.18204e-06
0.0040316
1.17671e-06
0.00403043
1.17147e-06
0.00402926
1.16632e-06
0.0040281
1.16125e-06
0.00402694
1.15618e-06
0.00402579
1.15112e-06
0.00402465
1.14618e-06
0.00402351
1.14134e-06
0.00402237
1.13662e-06
0.00402124
1.13205e-06
0.00402011
1.12755e-06
0.00401899
1.12302e-06
0.00401787
1.11841e-06
0.00401675
1.11378e-06
0.00401565
1.10922e-06
0.00401454
1.10466e-06
0.00401344
1.1001e-06
0.00401235
1.09554e-06
0.00401125
1.09097e-06
0.00401017
1.08639e-06
0.00400909
1.08181e-06
0.00400801
1.07727e-06
0.00400694
1.07275e-06
0.00400587
1.06819e-06
0.0040048
1.06357e-06
0.00400375
1.05894e-06
0.00400269
1.05428e-06
0.00400164
1.04958e-06
0.0040006
1.04482e-06
0.00399956
1.03999e-06
0.00399852
1.0351e-06
0.00399749
1.03015e-06
0.00399647
1.0252e-06
0.00399545
1.02027e-06
0.00399443
1.01537e-06
0.00399342
1.01052e-06
0.00399241
1.00572e-06
0.00399141
1.00101e-06
0.00399042
9.96373e-07
0.00398943
9.91841e-07
0.00398844
9.87335e-07
0.00398745
9.82884e-07
0.00398648
9.78457e-07
0.0039855
9.74153e-07
0.00398453
9.69923e-07
0.00398357
9.65729e-07
0.0039826
9.61539e-07
0.00398165
9.57245e-07
0.00398069
9.52882e-07
0.00397975
9.48428e-07
0.0039788
9.43906e-07
0.00397786
9.39331e-07
0.00397693
9.34615e-07
0.003976
9.29838e-07
0.00397507
9.2522e-07
0.00397415
9.20798e-07
0.00397324
9.16519e-07
0.00397232
9.12253e-07
0.00397141
9.07905e-07
0.00397051
9.03305e-07
0.00396961
8.98065e-07
0.00396872
8.92252e-07
0.00396783
8.86532e-07
0.00396695
8.8129e-07
0.00396608
8.76162e-07
0.00396521
8.70324e-07
0.00396434
8.6367e-07
0.00396349
8.56368e-07
0.00396264
8.48948e-07
0.0039618
8.41712e-07
0.00396096
8.33913e-07
0.00396014
8.25005e-07
0.00395932
8.14566e-07
0.00395852
8.04589e-07
0.00395772
7.95851e-07
0.00395693
7.87671e-07
0.00395615
7.8081e-07
0.00395538
7.74952e-07
0.00395461
7.70585e-07
0.00395384
7.67937e-07
0.00395307
7.65441e-07
0.00395231
7.62654e-07
0.00395155
7.59776e-07
0.00395079
7.56592e-07
0.00395004
7.54366e-07
0.00394929
7.51176e-07
0.00394854
7.4666e-07
0.0039478
7.41832e-07
0.00394707
7.34878e-07
0.00394634
7.27769e-07
0.00394562
7.22551e-07
0.0039449
7.17226e-07
0.00394419
7.11321e-07
0.00394348
7.05807e-07
0.00394278
7.00667e-07
0.00394208
6.96459e-07
0.00394139
6.92556e-07
0.0039407
6.89748e-07
0.00394001
6.8804e-07
0.00393933
6.85962e-07
0.00393864
6.83062e-07
0.00393797
6.78912e-07
0.00393729
6.73889e-07
0.00393662
6.67723e-07
0.00393596
6.60924e-07
0.00393531
6.55878e-07
0.00393465
6.52368e-07
0.00393401
6.48209e-07
0.00393336
6.44741e-07
0.00393272
6.43122e-07
0.00393208
6.42205e-07
0.00393144
6.40819e-07
0.0039308
6.36847e-07
0.00393017
6.30412e-07
0.00392955
6.22044e-07
0.00392893
6.13457e-07
0.00392833
6.06999e-07
0.00392772
6.01793e-07
0.00392713
5.97841e-07
0.00392653
5.96173e-07
0.00392593
5.95667e-07
0.00392534
5.95478e-07
0.00392474
5.94985e-07
0.00392415
5.90104e-07
0.00392357
5.83466e-07
0.00392299
5.7811e-07
0.00392242
5.72557e-07
0.00392185
5.68183e-07
0.00392129
5.64319e-07
0.00392073
5.59225e-07
0.00392017
5.53651e-07
0.00391962
5.47968e-07
0.00391908
5.42373e-07
0.00391855
5.37371e-07
0.00391801
5.3213e-07
0.00391749
5.25816e-07
0.00391697
5.20122e-07
0.00391645
5.16387e-07
0.00391594
5.13383e-07
0.00391543
5.11504e-07
0.00391491
5.11785e-07
0.0039144
5.14063e-07
0.00391388
5.16173e-07
0.00391337
5.16887e-07
0.00391285
5.15816e-07
0.00391234
5.13694e-07
0.00391183
5.1212e-07
0.00391132
5.10059e-07
0.00391081
5.06173e-07
0.00391031
5.02348e-07
0.00390981
5.01115e-07
0.00390931
5.00578e-07
0.00390881
4.99007e-07
0.00390831
4.97789e-07
0.00390781
4.962e-07
0.00390732
4.93234e-07
0.00390683
4.89237e-07
0.00390635
4.84429e-07
0.00390587
4.79438e-07
0.00390539
4.74141e-07
0.00390492
4.69414e-07
0.00390446
4.6656e-07
0.00390399
4.64167e-07
0.00390353
4.61415e-07
0.00390307
4.60335e-07
0.00390261
4.5958e-07
0.00390215
4.57454e-07
0.0039017
4.54302e-07
0.00390125
4.50041e-07
0.0039008
4.44908e-07
0.00390036
4.40908e-07
0.00389993
4.369e-07
0.00389949
4.31496e-07
0.00389907
4.27076e-07
0.00389864
4.2466e-07
0.00389822
4.22988e-07
0.0038978
4.22145e-07
0.00389738
4.21953e-07
0.00389696
4.19934e-07
0.00389654
4.16165e-07
0.00389613
4.1119e-07
0.00389572
4.06411e-07
0.00389532
4.02954e-07
0.00389492
4.00099e-07
0.00389452
3.97961e-07
0.00389412
3.97307e-07
0.00389373
3.97196e-07
0.00389333
3.96952e-07
0.00389293
3.97511e-07
0.00389253
3.97303e-07
0.00389214
3.95147e-07
0.00389175
3.92455e-07
0.00389136
3.8915e-07
0.00389097
3.86368e-07
0.00389059
3.84107e-07
0.00389021
3.81137e-07
0.00388983
3.78359e-07
0.00388945
3.76354e-07
0.00388908
3.75388e-07
0.0038887
3.7506e-07
0.00388833
3.74714e-07
0.00388795
3.74705e-07
0.00388758
3.74489e-07
0.00388721
3.72913e-07
0.00388684
3.70343e-07
0.00388647
3.67343e-07
0.00388611
3.6313e-07
0.00388574
3.60443e-07
0.00388539
3.58182e-07
0.00388503
3.55778e-07
0.00388468
3.55662e-07
0.00388432
3.55164e-07
0.00388397
3.54156e-07
0.00388361
3.52569e-07
0.00388326
3.50965e-07
0.00388291
3.50129e-07
0.00388256
3.48749e-07
0.00388222
3.4612e-07
0.00388187
3.43475e-07
0.00388153
3.42056e-07
0.00388119
3.41981e-07
0.00388085
3.40308e-07
0.00388051
3.37848e-07
0.00388017
3.36747e-07
0.00387984
3.36028e-07
0.0038795
3.36376e-07
0.00387917
3.36328e-07
0.00387883
3.34111e-07
0.0038785
3.2986e-07
0.00387818
3.23779e-07
0.00387786
3.18428e-07
0.00387755
3.15151e-07
0.00387723
3.12182e-07
0.00387693
3.07924e-07
0.00387662
3.04692e-07
0.00387632
3.02842e-07
0.00387602
3.0271e-07
0.00387571
3.02538e-07
0.00387541
3.01046e-07
0.00387511
3.01523e-07
0.00387481
3.01016e-07
0.00387451
2.99127e-07
0.00387421
2.96631e-07
0.00387392
2.93764e-07
0.00387363
2.90472e-07
0.00387334
2.8808e-07
0.00387305
2.87181e-07
0.00387277
2.86094e-07
0.00387248
2.86291e-07
0.00387219
2.87516e-07
0.00387191
2.88121e-07
0.00387162
2.88346e-07
0.00387133
2.88741e-07
0.00387104
2.89707e-07
0.00387075
2.90118e-07
0.00387046
2.88178e-07
0.00387018
2.85515e-07
0.00386989
2.84613e-07
0.00386961
2.83055e-07
0.00386933
2.8044e-07
0.00386905
2.79327e-07
0.00386877
2.79307e-07
0.00386849
2.80454e-07
0.00386821
2.80495e-07
0.00386793
2.81067e-07
0.00386765
2.817e-07
0.00386737
2.79773e-07
0.00386709
2.77757e-07
0.00386681
2.76576e-07
0.00386654
2.75469e-07
0.00386626
2.73832e-07
0.00386599
2.71205e-07
0.00386572
2.67911e-07
0.00386546
2.65303e-07
0.0038652
2.62707e-07
0.00386493
2.6099e-07
0.00386468
2.5879e-07
0.00386442
2.56117e-07
0.00386416
2.55664e-07
0.00386391
2.56466e-07
0.00386365
2.58881e-07
0.00386339
2.61307e-07
0.00386312
2.63238e-07
0.00386286
2.66133e-07
0.00386259
2.72241e-07
0.00386231
2.78101e-07
0.00386202
2.85946e-07
0.00386173
2.87155e-07
3.20261e-07
0.00618005
5.99452e-06
0.00619356
1.59382e-05
0.00620489
2.1689e-05
0.00621455
2.53818e-05
0.00622278
2.81887e-05
0.00622949
3.02581e-05
0.00623466
3.16612e-05
0.00623841
3.25837e-05
0.00624087
3.31888e-05
0.00624218
3.35649e-05
0.00624244
3.37614e-05
0.00624177
3.3815e-05
0.00624027
3.37569e-05
0.00623803
3.3612e-05
0.00623511
3.33987e-05
0.0062316
3.31305e-05
0.00622756
3.28187e-05
0.00622304
3.2472e-05
0.00621809
3.20979e-05
0.00621276
3.17022e-05
0.0062071
3.12897e-05
0.00620113
3.08647e-05
0.00619489
3.04303e-05
0.00618841
2.99894e-05
0.00618172
2.95444e-05
0.00617485
2.90973e-05
0.0061678
2.86498e-05
0.00616061
2.82032e-05
0.0061533
2.77588e-05
0.00614587
2.73176e-05
0.00613835
2.68804e-05
0.00613075
2.64479e-05
0.00612308
2.60208e-05
0.00611535
2.55994e-05
0.00610757
2.51843e-05
0.00609976
2.47757e-05
0.00609192
2.4374e-05
0.00608406
2.39792e-05
0.00607618
2.35915e-05
0.0060683
2.32111e-05
0.00606041
2.28381e-05
0.00605254
2.24724e-05
0.00604467
2.21141e-05
0.00603681
2.17632e-05
0.00602898
2.14196e-05
0.00602117
2.10834e-05
0.00601338
2.07543e-05
0.00600562
2.04325e-05
0.0059979
2.01176e-05
0.00599021
1.98098e-05
0.00598256
1.95088e-05
0.00597494
1.92146e-05
0.00596737
1.8927e-05
0.00595984
1.86459e-05
0.00595236
1.83712e-05
0.00594492
1.81027e-05
0.00593753
1.78403e-05
0.00593018
1.75839e-05
0.00592289
1.73333e-05
0.00591564
1.70885e-05
0.00590845
1.68492e-05
0.00590131
1.66154e-05
0.00589421
1.63868e-05
0.00588717
1.61635e-05
0.00588018
1.59451e-05
0.00587325
1.57317e-05
0.00586637
1.55231e-05
0.00585954
1.53192e-05
0.00585276
1.51198e-05
0.00584603
1.49248e-05
0.00583936
1.47341e-05
0.00583274
1.45476e-05
0.00582618
1.43652e-05
0.00581966
1.41868e-05
0.0058132
1.40123e-05
0.00580679
1.38415e-05
0.00580043
1.36744e-05
0.00579412
1.35109e-05
0.00578786
1.33509e-05
0.00578166
1.31944e-05
0.0057755
1.30412e-05
0.00576939
1.28913e-05
0.00576333
1.27447e-05
0.00575732
1.26013e-05
0.00575136
1.24611e-05
0.00574545
1.23242e-05
0.00573959
1.21907e-05
0.00573377
1.20607e-05
0.005728
1.19347e-05
0.00572228
1.18133e-05
0.0057166
1.16973e-05
0.00571099
1.15835e-05
0.00570544
1.14723e-05
0.00569995
1.13665e-05
0.00569452
1.12653e-05
0.00568915
1.11677e-05
0.00568384
1.10733e-05
0.00567858
1.09815e-05
0.00567339
1.08921e-05
0.00566824
1.08047e-05
0.00566315
1.0719e-05
0.0056581
1.0635e-05
0.0056531
1.05524e-05
0.00564815
1.04712e-05
0.00564325
1.03911e-05
0.00563838
1.03122e-05
0.00563356
1.02344e-05
0.00562878
1.01576e-05
0.00562404
1.00816e-05
0.00561934
1.00066e-05
0.00561468
9.93233e-06
0.00561005
9.85887e-06
0.00560546
9.78617e-06
0.0056009
9.71417e-06
0.00559638
9.64286e-06
0.00559189
9.57222e-06
0.00558743
9.50221e-06
0.005583
9.43283e-06
0.00557861
9.36405e-06
0.00557424
9.29587e-06
0.00556991
9.22826e-06
0.00556561
9.16123e-06
0.00556133
9.09476e-06
0.00555708
9.02885e-06
0.00555286
8.96348e-06
0.00554867
8.89867e-06
0.0055445
8.8344e-06
0.00554036
8.77068e-06
0.00553625
8.7075e-06
0.00553216
8.64486e-06
0.0055281
8.58276e-06
0.00552407
8.5212e-06
0.00552005
8.46018e-06
0.00551607
8.3997e-06
0.0055121
8.33975e-06
0.00550817
8.28033e-06
0.00550425
8.22144e-06
0.00550036
8.16306e-06
0.00549649
8.10519e-06
0.00549264
8.04781e-06
0.00548882
7.99093e-06
0.00548502
7.93451e-06
0.00548124
7.87854e-06
0.00547748
7.82301e-06
0.00547375
7.76788e-06
0.00547003
7.71314e-06
0.00546634
7.65877e-06
0.00546267
7.60474e-06
0.00545902
7.55102e-06
0.00545538
7.4976e-06
0.00545177
7.44445e-06
0.00544818
7.39154e-06
0.00544461
7.33885e-06
0.00544106
7.28636e-06
0.00543752
7.23403e-06
0.00543401
7.18186e-06
0.00543052
7.12981e-06
0.00542704
7.07789e-06
0.00542358
7.02606e-06
0.00542014
6.97432e-06
0.00541672
6.92267e-06
0.00541332
6.8711e-06
0.00540993
6.81961e-06
0.00540657
6.76821e-06
0.00540322
6.71692e-06
0.00539989
6.66575e-06
0.00539657
6.61472e-06
0.00539328
6.56388e-06
0.00539
6.51324e-06
0.00538674
6.46284e-06
0.00538349
6.41273e-06
0.00538027
6.36294e-06
0.00537706
6.31351e-06
0.00537387
6.26448e-06
0.0053707
6.21587e-06
0.00536754
6.16774e-06
0.00536441
6.12004e-06
0.00536129
6.07288e-06
0.00535819
6.02625e-06
0.0053551
5.98009e-06
0.00535204
5.93472e-06
0.00534899
5.89012e-06
0.00534596
5.84576e-06
0.00534294
5.80186e-06
0.00533994
5.7587e-06
0.00533696
5.71608e-06
0.00533399
5.67385e-06
0.00533104
5.63129e-06
0.00532811
5.58877e-06
0.00532519
5.54717e-06
0.0053223
5.50547e-06
0.00531942
5.46348e-06
0.00531655
5.42212e-06
0.0053137
5.38069e-06
0.00531087
5.33936e-06
0.00530806
5.29832e-06
0.00530526
5.25778e-06
0.00530248
5.21759e-06
0.00529972
5.17738e-06
0.00529697
5.13799e-06
0.00529424
5.09887e-06
0.00529152
5.06037e-06
0.00528882
5.02181e-06
0.00528614
4.98262e-06
0.00528347
4.94487e-06
0.00528081
4.90754e-06
0.00527817
4.86944e-06
0.00527556
4.83198e-06
0.00527295
4.79459e-06
0.00527037
4.75712e-06
0.0052678
4.72025e-06
0.00526524
4.6844e-06
0.0052627
4.64977e-06
0.00526018
4.61501e-06
0.00525767
4.57886e-06
0.00525519
4.54249e-06
0.00525272
4.50722e-06
0.00525026
4.47229e-06
0.00524783
4.43853e-06
0.00524541
4.40573e-06
0.00524301
4.37221e-06
0.00524062
4.33864e-06
0.00523825
4.30681e-06
0.0052359
4.27658e-06
0.00523356
4.24699e-06
0.00523124
4.21747e-06
0.00522893
4.18733e-06
0.00522664
4.15759e-06
0.00522436
4.12846e-06
0.00522209
4.0991e-06
0.00521985
4.07028e-06
0.00521761
4.04234e-06
0.0052154
4.01474e-06
0.0052132
3.9882e-06
0.00521101
3.96248e-06
0.00520883
3.93625e-06
0.00520667
3.90997e-06
0.00520452
3.88425e-06
0.00520239
3.85934e-06
0.00520026
3.83489e-06
0.00519816
3.81049e-06
0.00519606
3.787e-06
0.00519398
3.76494e-06
0.0051919
3.74276e-06
0.00518985
3.71962e-06
0.0051878
3.69672e-06
0.00518577
3.67474e-06
0.00518375
3.65399e-06
0.00518174
3.63253e-06
0.00517974
3.61074e-06
0.00517775
3.58989e-06
0.00517577
3.56926e-06
0.00517381
3.54917e-06
0.00517185
3.52994e-06
0.00516991
3.51112e-06
0.00516797
3.49168e-06
0.00516605
3.47204e-06
0.00516413
3.45305e-06
0.00516223
3.43477e-06
0.00516033
3.41654e-06
0.00515845
3.39836e-06
0.00515657
3.38061e-06
0.00515471
3.36339e-06
0.00515285
3.3465e-06
0.005151
3.32972e-06
0.00514916
3.31338e-06
0.00514732
3.29743e-06
0.0051455
3.28177e-06
0.00514368
3.26616e-06
0.00514188
3.25075e-06
0.00514008
3.23557e-06
0.00513829
3.22031e-06
0.0051365
3.20529e-06
0.00513473
3.19021e-06
0.00513296
3.17503e-06
0.00513121
3.16007e-06
0.00512946
3.14493e-06
0.00512772
3.13012e-06
0.00512598
3.11537e-06
0.00512426
3.10063e-06
0.00512254
3.08642e-06
0.00512084
3.07241e-06
0.00511913
3.05863e-06
0.00511744
3.04511e-06
0.00511575
3.03179e-06
0.00511407
3.0186e-06
0.0051124
3.00548e-06
0.00511073
2.99239e-06
0.00510907
2.97933e-06
0.00510741
2.96628e-06
0.00510577
2.95323e-06
0.00510412
2.94019e-06
0.00510249
2.92715e-06
0.00510086
2.91412e-06
0.00509924
2.90111e-06
0.00509762
2.88811e-06
0.00509602
2.87517e-06
0.00509441
2.8621e-06
0.00509282
2.8489e-06
0.00509123
2.83589e-06
0.00508965
2.82323e-06
0.00508807
2.81039e-06
0.0050865
2.79763e-06
0.00508494
2.78542e-06
0.00508338
2.77328e-06
0.00508183
2.76105e-06
0.00508028
2.74879e-06
0.00507875
2.7366e-06
0.00507721
2.72454e-06
0.00507569
2.71261e-06
0.00507417
2.70082e-06
0.00507266
2.68917e-06
0.00507115
2.67766e-06
0.00506965
2.66629e-06
0.00506816
2.65507e-06
0.00506667
2.64379e-06
0.00506519
2.63247e-06
0.00506371
2.62142e-06
0.00506224
2.61057e-06
0.00506078
2.59997e-06
0.00505932
2.58964e-06
0.00505787
2.57935e-06
0.00505643
2.56899e-06
0.00505499
2.55846e-06
0.00505355
2.54801e-06
0.00505212
2.53783e-06
0.0050507
2.52767e-06
0.00504928
2.51753e-06
0.00504787
2.50742e-06
0.00504646
2.49736e-06
0.00504506
2.48735e-06
0.00504367
2.47739e-06
0.00504228
2.46749e-06
0.00504089
2.45763e-06
0.00503951
2.4478e-06
0.00503814
2.43799e-06
0.00503677
2.42821e-06
0.0050354
2.41842e-06
0.00503405
2.40865e-06
0.00503269
2.3989e-06
0.00503134
2.38916e-06
0.00503
2.37943e-06
0.00502866
2.36971e-06
0.00502732
2.36003e-06
0.00502599
2.35039e-06
0.00502467
2.34078e-06
0.00502335
2.3312e-06
0.00502203
2.32169e-06
0.00502072
2.31224e-06
0.00501941
2.30284e-06
0.00501811
2.29355e-06
0.00501682
2.28426e-06
0.00501552
2.27501e-06
0.00501424
2.26579e-06
0.00501295
2.25666e-06
0.00501168
2.24762e-06
0.0050104
2.23862e-06
0.00500913
2.2296e-06
0.00500787
2.22046e-06
0.00500661
2.2114e-06
0.00500536
2.20237e-06
0.00500411
2.19329e-06
0.00500286
2.18414e-06
0.00500162
2.17468e-06
0.00500039
2.16509e-06
0.00499916
2.1555e-06
0.00499793
2.14569e-06
0.00499671
2.13552e-06
0.0049955
2.12513e-06
0.00499429
2.11487e-06
0.00499309
2.10482e-06
0.0049919
2.09475e-06
0.0049907
2.0843e-06
0.00498952
2.07369e-06
0.00498833
2.06339e-06
0.00498716
2.05257e-06
0.00498599
2.04085e-06
0.00498482
2.02953e-06
0.00498366
2.01796e-06
0.0049825
2.00572e-06
0.00498135
1.99336e-06
0.00498021
1.98042e-06
0.00497906
1.96738e-06
0.00497792
1.95409e-06
0.00497679
1.94216e-06
0.00497565
1.93052e-06
0.00497452
1.91846e-06
0.00497339
1.90749e-06
0.00497227
1.89588e-06
0.00497116
1.88495e-06
0.00497005
1.87551e-06
0.00496895
1.86659e-06
0.00496785
1.85743e-06
0.00496677
1.84798e-06
0.00496568
1.83911e-06
0.00496461
1.83132e-06
0.00496353
1.82332e-06
0.00496247
1.81464e-06
0.0049614
1.80495e-06
0.00496034
1.79389e-06
0.00495929
1.7827e-06
0.00495824
1.77289e-06
0.00495719
1.76267e-06
0.00495615
1.75261e-06
0.00495511
1.74436e-06
0.00495408
1.7358e-06
0.00495305
1.72702e-06
0.00495202
1.71733e-06
0.004951
1.70805e-06
0.00494999
1.6994e-06
0.00494899
1.69095e-06
0.00494799
1.68238e-06
0.004947
1.67257e-06
0.00494601
1.66237e-06
0.00494502
1.65248e-06
0.00494404
1.64259e-06
0.00494306
1.63336e-06
0.00494209
1.62373e-06
0.00494113
1.61394e-06
0.00494016
1.6054e-06
0.00493921
1.59748e-06
0.00493826
1.58919e-06
0.00493732
1.58056e-06
0.00493639
1.57182e-06
0.00493546
1.56173e-06
0.00493453
1.54977e-06
0.0049336
1.53823e-06
0.00493268
1.52991e-06
0.00493176
1.52183e-06
0.00493085
1.5131e-06
0.00492994
1.50521e-06
0.00492904
1.49742e-06
0.00492814
1.48995e-06
0.00492725
1.48261e-06
0.00492637
1.47307e-06
0.00492549
1.46331e-06
0.00492461
1.45463e-06
0.00492374
1.44591e-06
0.00492287
1.43731e-06
0.00492201
1.43027e-06
0.00492114
1.42381e-06
0.00492028
1.41634e-06
0.00491942
1.40831e-06
0.00491856
1.39894e-06
0.00491771
1.39026e-06
0.00491686
1.38122e-06
0.00491601
1.37089e-06
0.00491517
1.36062e-06
0.00491434
1.352e-06
0.0049135
1.34611e-06
0.00491268
1.34034e-06
0.00491185
1.33303e-06
0.00491104
1.32659e-06
0.00491024
1.32096e-06
0.00490944
1.31449e-06
0.00490865
1.30819e-06
0.00490786
1.30315e-06
0.00490707
1.29826e-06
0.00490629
1.2914e-06
0.00490551
1.28316e-06
0.00490474
1.27427e-06
0.00490398
1.26674e-06
0.00490321
1.26202e-06
0.00490246
1.25735e-06
0.0049017
1.25217e-06
0.00490095
1.2478e-06
0.0049002
1.24284e-06
0.00489945
1.23619e-06
0.00489871
1.22756e-06
0.00489797
1.21878e-06
0.00489724
1.21008e-06
0.0048965
1.20085e-06
0.00489578
1.19226e-06
0.00489506
1.1846e-06
0.00489434
1.17649e-06
0.00489363
1.16968e-06
0.00489293
1.16495e-06
0.00489223
1.15922e-06
0.00489153
1.1527e-06
0.00489083
1.1459e-06
0.00489014
1.13774e-06
0.00488945
1.13127e-06
0.00488876
1.12589e-06
0.00488807
1.11785e-06
0.00488739
1.10824e-06
0.00488671
1.10137e-06
0.00488604
1.09731e-06
0.00488537
1.09264e-06
0.00488471
1.08607e-06
0.00488405
1.07894e-06
0.00488339
1.07332e-06
0.00488273
1.06796e-06
0.00488207
1.06447e-06
0.00488142
1.06102e-06
0.00488076
1.05564e-06
0.00488011
1.04945e-06
0.00487946
1.04368e-06
0.00487882
1.03811e-06
0.00487819
1.03137e-06
0.00487756
1.02477e-06
0.00487694
1.01789e-06
0.00487632
1.01132e-06
0.00487571
1.00538e-06
0.0048751
9.97625e-07
0.0048745
9.89616e-07
0.0048739
9.83813e-07
0.0048733
9.78293e-07
0.00487271
9.74583e-07
0.00487211
9.73468e-07
0.00487151
9.71619e-07
0.00487092
9.67625e-07
0.00487033
9.63512e-07
0.00486975
9.60523e-07
0.00486916
9.56859e-07
0.00486859
9.51049e-07
0.00486801
9.45206e-07
0.00486744
9.40216e-07
0.00486687
9.34005e-07
0.0048663
9.26941e-07
0.00486574
9.20469e-07
0.00486518
9.16026e-07
0.00486462
9.1342e-07
0.00486407
9.10534e-07
0.00486351
9.07423e-07
0.00486296
9.02888e-07
0.00486242
8.96547e-07
0.00486188
8.90754e-07
0.00486134
8.84528e-07
0.00486081
8.77586e-07
0.00486028
8.7073e-07
0.00485976
8.65587e-07
0.00485924
8.6229e-07
0.00485872
8.5867e-07
0.0048582
8.53986e-07
0.00485769
8.49362e-07
0.00485718
8.45553e-07
0.00485667
8.426e-07
0.00485617
8.40518e-07
0.00485567
8.37193e-07
0.00485517
8.31593e-07
0.00485466
8.24699e-07
0.00485417
8.17125e-07
0.00485367
8.09955e-07
0.00485318
8.03612e-07
0.00485269
7.97398e-07
0.0048522
7.92859e-07
0.00485172
7.88839e-07
0.00485123
7.84982e-07
0.00485075
7.82651e-07
0.00485027
7.80759e-07
0.0048498
7.79132e-07
0.00484932
7.75015e-07
0.00484885
7.69833e-07
0.00484838
7.65212e-07
0.00484792
7.61642e-07
0.00484745
7.57576e-07
0.00484698
7.53513e-07
0.00484652
7.5091e-07
0.00484606
7.47174e-07
0.0048456
7.44503e-07
0.00484514
7.42717e-07
0.00484469
7.39615e-07
0.00484425
7.36032e-07
0.0048438
7.32689e-07
0.00484336
7.29968e-07
0.00484292
7.26491e-07
0.00484249
7.21843e-07
0.00484206
7.1717e-07
0.00484163
7.12935e-07
0.00484121
7.08388e-07
0.00484078
7.04531e-07
0.00484036
7.02903e-07
0.00483994
7.01906e-07
0.00483952
7.00195e-07
0.0048391
6.98079e-07
0.00483868
6.98405e-07
0.00483826
6.98055e-07
0.00483785
6.95342e-07
0.00483743
6.92705e-07
0.00483702
6.89554e-07
0.00483661
6.84708e-07
0.00483621
6.79455e-07
0.0048358
6.74715e-07
0.0048354
6.70392e-07
0.004835
6.67464e-07
0.0048346
6.63811e-07
0.0048342
6.60179e-07
0.0048338
6.58055e-07
0.0048334
6.54879e-07
0.004833
6.52515e-07
0.00483261
6.51777e-07
0.00483222
6.51315e-07
0.00483183
6.51792e-07
0.00483144
6.53204e-07
0.00483105
6.55889e-07
0.00483066
6.61488e-07
0.00483027
6.66969e-07
0.00482988
6.742e-07
0.00482949
6.77368e-07
7.0543e-07
0.00616914
3.51904e-06
0.00617445
1.06312e-05
0.00618034
1.57949e-05
0.00618618
1.95404e-05
0.00619185
2.25273e-05
0.00619718
2.49251e-05
0.00620207
2.67738e-05
0.00620647
2.81777e-05
0.00621041
2.92543e-05
0.00621389
3.00823e-05
0.00621694
3.07093e-05
0.00621959
3.11711e-05
0.00622184
3.14981e-05
0.00622374
3.17154e-05
0.0062253
3.18423e-05
0.00622653
3.1894e-05
0.00622747
3.18829e-05
0.00622812
3.1819e-05
0.00622851
3.17108e-05
0.00622865
3.15653e-05
0.00622855
3.13885e-05
0.00622823
3.11853e-05
0.0062277
3.09599e-05
0.00622697
3.07159e-05
0.00622606
3.04564e-05
0.00622497
3.01841e-05
0.00622372
2.99014e-05
0.00622231
2.96102e-05
0.00622076
2.93122e-05
0.00621907
2.90089e-05
0.00621725
2.87018e-05
0.0062153
2.83919e-05
0.00621324
2.80803e-05
0.00621108
2.77677e-05
0.00620881
2.7455e-05
0.00620644
2.71429e-05
0.00620398
2.6832e-05
0.00620144
2.65226e-05
0.00619881
2.62154e-05
0.00619611
2.59106e-05
0.00619334
2.56086e-05
0.00619051
2.53097e-05
0.00618761
2.50141e-05
0.00618465
2.47219e-05
0.00618163
2.44335e-05
0.00617857
2.41488e-05
0.00617545
2.38681e-05
0.00617229
2.35914e-05
0.00616909
2.33188e-05
0.00616585
2.30504e-05
0.00616258
2.27861e-05
0.00615926
2.2526e-05
0.00615592
2.22701e-05
0.00615255
2.20184e-05
0.00614915
2.17709e-05
0.00614572
2.15276e-05
0.00614228
2.12884e-05
0.00613881
2.10533e-05
0.00613532
2.08223e-05
0.00613181
2.05953e-05
0.00612829
2.03723e-05
0.00612475
2.01532e-05
0.0061212
1.99379e-05
0.00611764
1.97265e-05
0.00611406
1.95188e-05
0.00611048
1.93147e-05
0.00610689
1.91143e-05
0.00610329
1.89175e-05
0.00609968
1.87241e-05
0.00609608
1.85341e-05
0.00609246
1.83475e-05
0.00608885
1.81642e-05
0.00608523
1.79841e-05
0.00608161
1.78072e-05
0.00607798
1.76334e-05
0.00607436
1.74627e-05
0.00607074
1.72949e-05
0.00606712
1.71302e-05
0.00606351
1.69683e-05
0.00605989
1.68093e-05
0.00605628
1.66531e-05
0.00605267
1.64997e-05
0.00604907
1.63491e-05
0.00604547
1.62013e-05
0.00604187
1.60563e-05
0.00603828
1.59142e-05
0.0060347