/*--------------------------------*- C++ -*----------------------------------*\
  =========                 |
  \\      /  F ield         | OpenFOAM: The Open Source CFD Toolbox
   \\    /   O peration     | Website:  https://openfoam.org
    \\  /    A nd           | Version:  7
     \\/     M anipulation  |
\*---------------------------------------------------------------------------*/
FoamFile
{
    version     2.0;
    format      ascii;
    class       pointScalarField;
    location    "167";
    object      streamFunction;
}
// * * * * * * * * * * * * * * * * * * * * * * * * * * * * * * * * * * * * * //

dimensions      [0 3 -1 0 0 0 0];

internalField   nonuniform List<scalar> 
73322
(
-0.37
-0.37
-0.37
-0.37
-0.37
-0.37
-0.37
-0.37
-0.37
-0.37
-0.37
-0.37
-0.37
-0.37
-0.37
-0.37
-0.37
-0.37
-0.37
-0.37
-0.37
-0.37
-0.37
-0.37
-0.37
-0.37
-0.37
-0.37
-0.37
-0.37
-0.37
-0.37
-0.37
-0.37
-0.37
-0.37
-0.37
-0.37
-0.37
-0.37
-0.37
-0.37
-0.37
-0.37
-0.37
-0.37
-0.37
-0.37
-0.37
-0.37
-0.37
-0.37
-0.37
-0.37
-0.37
-0.37
-0.37
-0.37
-0.37
-0.37
-0.37
-0.37
-0.37
-0.37
-0.37
-0.37
-0.37
-0.37
-0.37
-0.37
-0.37
-0.37
-0.37
-0.37
-0.37
-0.37
-0.37
-0.37
-0.37
-0.37
-0.37
-0.37
-0.37
-0.37
-0.37
-0.37
-0.37
-0.37
-0.37
-0.37
-0.37
-0.37
-0.37
-0.37
-0.37
-0.37
-0.37
-0.37
-0.37
-0.37
-0.37
-0.37
-0.37
-0.37
-0.37
-0.37
-0.37
-0.37
-0.37
-0.37
-0.37
-0.37
-0.37
-0.37
-0.37
-0.37
-0.37
-0.37
-0.37
-0.37
-0.37
-0.37
-0.37
-0.37
-0.37
-0.37
-0.37
-0.37
-0.37
-0.37
-0.37
-0.37
-0.37
-0.37
-0.37
-0.37
-0.37
-0.37
-0.37
-0.37
-0.37
-0.37
-0.37
-0.37
-0.37
-0.37
-0.37
-0.37
-0.37
-0.37
-0.37
-0.37
-0.37
-0.37
-0.37
-0.37
-0.37
-0.37
-0.37
-0.37
-0.37
-0.37
-0.37
-0.37
-0.37
-0.37
-0.37
-0.37
-0.37
-0.37
-0.37
-0.37
-0.37
-0.37
-0.37
-0.37
-0.37
-0.37
-0.37
-0.37
-0.37
-0.37
-0.37
-0.37
-0.37
-0.37
-0.37
-0.37
-0.37
-0.37
-0.37
-0.37
-0.37
-0.37
-0.37
-0.37
-0.37
-0.37
-0.37
-0.37
-0.37
-0.37
-0.37
-0.37
-0.37
-0.37
-0.37
-0.37
-0.37
-0.37
-0.37
-0.37
-0.37
-0.37
-0.37
-0.37
-0.37
-0.37
-0.37
-0.37
-0.37
-0.37
-0.37
-0.37
-0.37
-0.37
-0.37
-0.37
-0.37
-0.37
-0.37
-0.37
-0.37
-0.37
-0.37
-0.37
-0.37
-0.37
-0.37
-0.37
-0.37
-0.37
-0.37
-0.37
-0.37
-0.37
-0.37
-0.37
-0.37
-0.37
-0.37
-0.37
-0.37
-0.37
-0.37
-0.37
-0.37
-0.37
-0.37
-0.37
-0.37
-0.37
-0.37
-0.37
-0.37
-0.37
-0.37
-0.37
-0.37
-0.37
-0.37
-0.37
-0.37
-0.37
-0.37
-0.37
-0.37
-0.37
-0.37
-0.37
-0.37
-0.37
-0.37
-0.37
-0.37
-0.37
-0.37
-0.37
-0.37
-0.37
-0.37
-0.37
-0.37
-0.37
-0.37
-0.37
-0.37
-0.37
-0.37
-0.37
-0.37
-0.37
-0.37
-0.37
-0.37
-0.37
-0.37
-0.37
-0.37
-0.37
-0.37
-0.37
-0.37
-0.37
-0.37
-0.37
-0.37
-0.37
-0.37
-0.37
-0.37
-0.37
-0.37
-0.37
-0.37
-0.37
-0.37
-0.37
-0.37
-0.37
-0.37
-0.37
-0.37
-0.37
-0.37
-0.37
-0.37
-0.37
-0.37
-0.37
-0.37
-0.37
-0.37
-0.37
-0.37
-0.37
-0.37
-0.37
-0.37
-0.37
-0.37
-0.37
-0.37
-0.37
-0.37
-0.37
-0.37
-0.37
-0.37
-0.37
-0.37
-0.37
-0.37
-0.37
-0.37
-0.37
-0.37
-0.37
-0.37
-0.37
-0.37
-0.37
-0.37
-0.37
-0.37
-0.37
-0.37
-0.37
-0.37
-0.37
-0.37
-0.37
-0.37
-0.37
-0.37
-0.37
-0.37
-0.37
-0.37
-0.37
-0.37
-0.37
-0.37
-0.37
-0.37
-0.37
-0.37
-0.37
-0.37
-0.37
-0.37
-0.37
-0.37
-0.37
-0.37
-0.37
-0.37
-0.37
-0.37
-0.37
-0.37
-0.37
-0.37
-0.37
-0.37
-0.37
-0.37
-0.37
-0.37
-0.37
-0.37
-0.37
-0.37
-0.37
-0.37
-0.37
-0.37
-0.37
-0.37
-0.37
-0.37
-0.37
-0.37
-0.37
-0.37
-0.37
-0.37
-0.37
-0.37
-0.37
-0.37
-0.37
-0.37
-0.37
-0.37
-0.37
-0.37
-0.37
-0.37
-0.37
-0.37
-0.37
-0.37
-0.37
-0.37
-0.37
-0.37
-0.37
-0.37
-0.37
-0.37
-0.37
-0.37
-0.37
-0.37
-0.37
-0.37
-0.37
-0.37
-0.37
-0.37
-0.37
-0.37
-0.37
-0.37
-0.37
-0.37
-0.37
-0.37
-0.37
-0.37
-0.37
-0.37
-0.37
-0.37
-0.37
-0.37
-0.37
-0.37
-0.37
-0.37
-0.37
-0.37
-0.37
-0.37
-0.37
-0.37
-0.37
-0.37
-0.37
-0.37
-0.37
-0.37
-0.37
-0.37
-0.37
-0.37
-0.37
-0.37
-0.37
-0.37
-0.37
-0.37
-0.37
-0.37
-0.37
-0.37
-0.37
-0.37
-0.37
-0.37
-0.37
-0.37
-0.37
-0.37
-0.37
-0.37
-0.37
-0.37
-0.37
-0.37
-0.37
-0.37
-0.37
-0.37
-0.37
-0.37
-0.37
-0.37
-0.37
-0.37
-0.37
-0.37
-0.37
-0.37
-0.37
-0.37
-0.37
-0.37
-0.37
-0.37
-0.37
-0.37
-0.37
-0.37
-0.37
-0.37
-0.37
-0.37
-0.37
-0.37
-0.37
-0.37
-0.37
-0.37
-0.37
-0.37
-0.37
-0.37
-0.37
-0.37
-0.37
-0.37
-0.37
-0.37
-0.37
-0.37
-0.37
-0.37
-0.37
-0.37
-0.37
-0.37
-0.37
-0.37
-0.37
-0.37
-0.37
-0.37
-0.37
-0.37
-0.37
-0.37
-0.37
-0.37
-0.37
-0.37
-0.37
-0.37
-0.37
-0.37
-0.363834
-0.363853
-0.363882
-0.363915
-0.36395
-0.363987
-0.364024
-0.36406
-0.364097
-0.364132
-0.364167
-0.364201
-0.364234
-0.364267
-0.364298
-0.364329
-0.364358
-0.364387
-0.364415
-0.364442
-0.364468
-0.364494
-0.364519
-0.364543
-0.364567
-0.36459
-0.364612
-0.364633
-0.364654
-0.364675
-0.364695
-0.364714
-0.364733
-0.364751
-0.364769
-0.364787
-0.364804
-0.36482
-0.364836
-0.364852
-0.364867
-0.364882
-0.364897
-0.364911
-0.364925
-0.364938
-0.364952
-0.364965
-0.364977
-0.36499
-0.365002
-0.365014
-0.365025
-0.365037
-0.365048
-0.365059
-0.365069
-0.36508
-0.36509
-0.3651
-0.36511
-0.36512
-0.365129
-0.365138
-0.365147
-0.365156
-0.365165
-0.365174
-0.365182
-0.365191
-0.365199
-0.365207
-0.365215
-0.365223
-0.36523
-0.365238
-0.365245
-0.365253
-0.36526
-0.365267
-0.365274
-0.365281
-0.365288
-0.365294
-0.365301
-0.365307
-0.365314
-0.36532
-0.365326
-0.365333
-0.365339
-0.365345
-0.365351
-0.365357
-0.365362
-0.365368
-0.365374
-0.36538
-0.365386
-0.365391
-0.365397
-0.365403
-0.365408
-0.365414
-0.365419
-0.365425
-0.36543
-0.365436
-0.365441
-0.365446
-0.365452
-0.365457
-0.365462
-0.365467
-0.365472
-0.365478
-0.365483
-0.365488
-0.365493
-0.365498
-0.365503
-0.365508
-0.365512
-0.365517
-0.365522
-0.365527
-0.365531
-0.365536
-0.365541
-0.365545
-0.36555
-0.365554
-0.365559
-0.365563
-0.365568
-0.365572
-0.365576
-0.365581
-0.365585
-0.365589
-0.365593
-0.365598
-0.365602
-0.365606
-0.36561
-0.365614
-0.365618
-0.365622
-0.365626
-0.36563
-0.365634
-0.365637
-0.365641
-0.365645
-0.365649
-0.365652
-0.365656
-0.36566
-0.365663
-0.365667
-0.36567
-0.365674
-0.365677
-0.365681
-0.365684
-0.365688
-0.365691
-0.365694
-0.365698
-0.365701
-0.365704
-0.365707
-0.36571
-0.365713
-0.365716
-0.36572
-0.365723
-0.365725
-0.365728
-0.365731
-0.365734
-0.365737
-0.36574
-0.365743
-0.365746
-0.365748
-0.365751
-0.365754
-0.365756
-0.365759
-0.365762
-0.365764
-0.365767
-0.365769
-0.365772
-0.365775
-0.365777
-0.365779
-0.365782
-0.365784
-0.365787
-0.365789
-0.365791
-0.365794
-0.365796
-0.365798
-0.365801
-0.365803
-0.365805
-0.365807
-0.365809
-0.365811
-0.365814
-0.365816
-0.365818
-0.36582
-0.365822
-0.365824
-0.365826
-0.365828
-0.36583
-0.365832
-0.365834
-0.365836
-0.365838
-0.36584
-0.365842
-0.365843
-0.365845
-0.365847
-0.365849
-0.365851
-0.365853
-0.365855
-0.365856
-0.365858
-0.36586
-0.365862
-0.365863
-0.365865
-0.365867
-0.365868
-0.36587
-0.365872
-0.365873
-0.365875
-0.365877
-0.365878
-0.36588
-0.365882
-0.365883
-0.365885
-0.365887
-0.365888
-0.36589
-0.365891
-0.365893
-0.365894
-0.365896
-0.365897
-0.365899
-0.3659
-0.365902
-0.365903
-0.365905
-0.365906
-0.365908
-0.365909
-0.365911
-0.365912
-0.365914
-0.365915
-0.365917
-0.365918
-0.365919
-0.365921
-0.365922
-0.365924
-0.365925
-0.365926
-0.365928
-0.365929
-0.36593
-0.365932
-0.365933
-0.365934
-0.365936
-0.365937
-0.365939
-0.36594
-0.365941
-0.365942
-0.365944
-0.365945
-0.365946
-0.365948
-0.365949
-0.36595
-0.365951
-0.365953
-0.365954
-0.365955
-0.365956
-0.365958
-0.365959
-0.36596
-0.365961
-0.365962
-0.365964
-0.365965
-0.365966
-0.365967
-0.365968
-0.36597
-0.365971
-0.365972
-0.365973
-0.365974
-0.365975
-0.365976
-0.365978
-0.365979
-0.36598
-0.365981
-0.365982
-0.365983
-0.365984
-0.365985
-0.365987
-0.365988
-0.365989
-0.36599
-0.365991
-0.365992
-0.365993
-0.365994
-0.365995
-0.365996
-0.365997
-0.365998
-0.365999
-0.366001
-0.366001
-0.366003
-0.366004
-0.366005
-0.366006
-0.366007
-0.366008
-0.366009
-0.36601
-0.366011
-0.366012
-0.366013
-0.366014
-0.366014
-0.366015
-0.366016
-0.366017
-0.366018
-0.366019
-0.36602
-0.366021
-0.366022
-0.366023
-0.366024
-0.366025
-0.366026
-0.366027
-0.366028
-0.366029
-0.36603
-0.36603
-0.366031
-0.366032
-0.366033
-0.366034
-0.366035
-0.366036
-0.366037
-0.366037
-0.366038
-0.366039
-0.36604
-0.366041
-0.366042
-0.366042
-0.366043
-0.366044
-0.366045
-0.366045
-0.366046
-0.366047
-0.366048
-0.366048
-0.366049
-0.36605
-0.366051
-0.366051
-0.366052
-0.366053
-0.366054
-0.366054
-0.366055
-0.366056
-0.366057
-0.366057
-0.366058
-0.366059
-0.366059
-0.36606
-0.366061
-0.366061
-0.366062
-0.366063
-0.366063
-0.366064
-0.366065
-0.366065
-0.366066
-0.366067
-0.366067
-0.366068
-0.366069
-0.366069
-0.36607
-0.36607
-0.366071
-0.366072
-0.366072
-0.366073
-0.366074
-0.366074
-0.366075
-0.366075
-0.366076
-0.366076
-0.366077
-0.366078
-0.366078
-0.366079
-0.366079
-0.36608
-0.36608
-0.366081
-0.366081
-0.366082
-0.366083
-0.366083
-0.366084
-0.366084
-0.366085
-0.366085
-0.366086
-0.366086
-0.366087
-0.366087
-0.366088
-0.366088
-0.366089
-0.366089
-0.36609
-0.36609
-0.366091
-0.366091
-0.366092
-0.366092
-0.366093
-0.366093
-0.366094
-0.366094
-0.366095
-0.366095
-0.366096
-0.366096
-0.366097
-0.366097
-0.366097
-0.366098
-0.366098
-0.366099
-0.366099
-0.3661
-0.3661
-0.366101
-0.366101
-0.366101
-0.366102
-0.366102
-0.366103
-0.366103
-0.366104
-0.366104
-0.366104
-0.366105
-0.366105
-0.366106
-0.366106
-0.366106
-0.366107
-0.366107
-0.366108
-0.366108
-0.366108
-0.366109
-0.366109
-0.366109
-0.36611
-0.36611
-0.366111
-0.366111
-0.366111
-0.366112
-0.366112
-0.366112
-0.366113
-0.366113
-0.366114
-0.366114
-0.366114
-0.366115
-0.366115
-0.366115
-0.366116
-0.366116
-0.366116
-0.366117
-0.366117
-0.366117
-0.366118
-0.366118
-0.366119
-0.366119
-0.366119
-0.36612
-0.36612
-0.36612
-0.366121
-0.366121
-0.366121
-0.366122
-0.366122
-0.366122
-0.366123
-0.366123
-0.366123
-0.366123
-0.366124
-0.366124
-0.366124
-0.366125
-0.366125
-0.366125
-0.366126
-0.366126
-0.366126
-0.366126
-0.366127
-0.366127
-0.366127
-0.366128
-0.366128
-0.366128
-0.366128
-0.366129
-0.366129
-0.366129
-0.36613
-0.36613
-0.36613
-0.36613
-0.366131
-0.366131
-0.366131
-0.366132
-0.366132
-0.366132
-0.366132
-0.366133
-0.366133
-0.366133
-0.366134
-0.366134
-0.366134
-0.366134
-0.366135
-0.366135
-0.366135
-0.366135
-0.366136
-0.366136
-0.366136
-0.366136
-0.366137
-0.366137
-0.366137
-0.366137
-0.366138
-0.366138
-0.366138
-0.366139
-0.357667
-0.357673
-0.357689
-0.35771
-0.357736
-0.357764
-0.357794
-0.357826
-0.357858
-0.357892
-0.357925
-0.357959
-0.357993
-0.358026
-0.35806
-0.358093
-0.358127
-0.358159
-0.358192
-0.358224
-0.358256
-0.358287
-0.358318
-0.358348
-0.358378
-0.358408
-0.358437
-0.358466
-0.358494
-0.358521
-0.358549
-0.358576
-0.358602
-0.358628
-0.358654
-0.358679
-0.358704
-0.358728
-0.358752
-0.358776
-0.358799
-0.358822
-0.358844
-0.358866
-0.358888
-0.35891
-0.358931
-0.358951
-0.358972
-0.358992
-0.359012
-0.359031
-0.35905
-0.359069
-0.359088
-0.359106
-0.359124
-0.359142
-0.35916
-0.359177
-0.359194
-0.359211
-0.359228
-0.359244
-0.35926
-0.359276
-0.359292
-0.359308
-0.359323
-0.359338
-0.359353
-0.359368
-0.359382
-0.359397
-0.359411
-0.359425
-0.359439
-0.359452
-0.359466
-0.359479
-0.359492
-0.359505
-0.359518
-0.359531
-0.359544
-0.359556
-0.359568
-0.359581
-0.359593
-0.359605
-0.359616
-0.359628
-0.35964
-0.359651
-0.359662
-0.359674
-0.359685
-0.359696
-0.359707
-0.359718
-0.359729
-0.359739
-0.35975
-0.359761
-0.359771
-0.359781
-0.359792
-0.359802
-0.359812
-0.359822
-0.359832
-0.359842
-0.359852
-0.359862
-0.359872
-0.359881
-0.359891
-0.3599
-0.35991
-0.359919
-0.359928
-0.359938
-0.359947
-0.359956
-0.359965
-0.359974
-0.359983
-0.359992
-0.36
-0.360009
-0.360018
-0.360026
-0.360035
-0.360043
-0.360052
-0.36006
-0.360068
-0.360076
-0.360085
-0.360093
-0.360101
-0.360109
-0.360117
-0.360125
-0.360132
-0.36014
-0.360148
-0.360156
-0.360163
-0.360171
-0.360178
-0.360186
-0.360193
-0.3602
-0.360208
-0.360215
-0.360222
-0.360229
-0.360236
-0.360243
-0.36025
-0.360257
-0.360264
-0.360271
-0.360278
-0.360284
-0.360291
-0.360298
-0.360304
-0.360311
-0.360317
-0.360324
-0.36033
-0.360336
-0.360343
-0.360349
-0.360355
-0.360361
-0.360367
-0.360373
-0.360379
-0.360385
-0.360391
-0.360397
-0.360403
-0.360408
-0.360414
-0.36042
-0.360425
-0.360431
-0.360437
-0.360442
-0.360448
-0.360453
-0.360458
-0.360464
-0.360469
-0.360474
-0.360479
-0.360485
-0.36049
-0.360495
-0.3605
-0.360505
-0.36051
-0.360515
-0.36052
-0.360525
-0.360529
-0.360534
-0.360539
-0.360544
-0.360548
-0.360553
-0.360558
-0.360562
-0.360567
-0.360571
-0.360576
-0.36058
-0.360585
-0.360589
-0.360593
-0.360598
-0.360602
-0.360606
-0.36061
-0.360615
-0.360619
-0.360623
-0.360627
-0.360631
-0.360635
-0.360639
-0.360643
-0.360647
-0.360651
-0.360655
-0.360659
-0.360663
-0.360667
-0.36067
-0.360674
-0.360678
-0.360682
-0.360685
-0.360689
-0.360693
-0.360696
-0.3607
-0.360704
-0.360707
-0.360711
-0.360714
-0.360718
-0.360721
-0.360725
-0.360728
-0.360732
-0.360735
-0.360739
-0.360742
-0.360745
-0.360749
-0.360752
-0.360755
-0.360759
-0.360762
-0.360765
-0.360769
-0.360772
-0.360775
-0.360778
-0.360781
-0.360785
-0.360788
-0.360791
-0.360794
-0.360797
-0.3608
-0.360803
-0.360807
-0.36081
-0.360813
-0.360816
-0.360819
-0.360822
-0.360825
-0.360828
-0.360831
-0.360834
-0.360837
-0.36084
-0.360843
-0.360845
-0.360848
-0.360851
-0.360854
-0.360857
-0.36086
-0.360863
-0.360866
-0.360868
-0.360871
-0.360874
-0.360877
-0.360879
-0.360882
-0.360885
-0.360888
-0.36089
-0.360893
-0.360896
-0.360898
-0.360901
-0.360904
-0.360906
-0.360909
-0.360912
-0.360914
-0.360917
-0.36092
-0.360922
-0.360925
-0.360927
-0.36093
-0.360932
-0.360935
-0.360937
-0.36094
-0.360942
-0.360945
-0.360947
-0.36095
-0.360952
-0.360955
-0.360957
-0.360959
-0.360962
-0.360964
-0.360967
-0.360969
-0.360971
-0.360974
-0.360976
-0.360979
-0.360981
-0.360983
-0.360986
-0.360988
-0.36099
-0.360992
-0.360995
-0.360997
-0.360999
-0.361002
-0.361004
-0.361006
-0.361008
-0.36101
-0.361013
-0.361015
-0.361017
-0.361019
-0.361021
-0.361024
-0.361026
-0.361028
-0.36103
-0.361032
-0.361034
-0.361036
-0.361039
-0.361041
-0.361043
-0.361045
-0.361047
-0.361049
-0.361051
-0.361053
-0.361055
-0.361057
-0.361059
-0.361061
-0.361063
-0.361065
-0.361067
-0.361069
-0.36107
-0.361072
-0.361074
-0.361076
-0.361078
-0.36108
-0.361082
-0.361084
-0.361085
-0.361087
-0.361089
-0.361091
-0.361093
-0.361094
-0.361096
-0.361098
-0.3611
-0.361101
-0.361103
-0.361105
-0.361107
-0.361108
-0.36111
-0.361112
-0.361113
-0.361115
-0.361117
-0.361118
-0.36112
-0.361122
-0.361123
-0.361125
-0.361127
-0.361128
-0.36113
-0.361131
-0.361133
-0.361134
-0.361136
-0.361138
-0.361139
-0.361141
-0.361142
-0.361144
-0.361145
-0.361147
-0.361148
-0.36115
-0.361151
-0.361152
-0.361154
-0.361155
-0.361157
-0.361158
-0.36116
-0.361161
-0.361162
-0.361164
-0.361165
-0.361167
-0.361168
-0.361169
-0.361171
-0.361172
-0.361173
-0.361175
-0.361176
-0.361177
-0.361179
-0.36118
-0.361181
-0.361182
-0.361184
-0.361185
-0.361186
-0.361188
-0.361189
-0.36119
-0.361191
-0.361193
-0.361194
-0.361195
-0.361196
-0.361197
-0.361199
-0.3612
-0.361201
-0.361202
-0.361203
-0.361205
-0.361206
-0.361207
-0.361208
-0.361209
-0.36121
-0.361211
-0.361212
-0.361214
-0.361215
-0.361216
-0.361217
-0.361218
-0.361219
-0.36122
-0.361221
-0.361222
-0.361223
-0.361224
-0.361225
-0.361226
-0.361227
-0.361229
-0.36123
-0.361231
-0.361232
-0.361233
-0.361234
-0.361235
-0.361236
-0.361237
-0.361238
-0.361238
-0.361239
-0.36124
-0.361241
-0.361242
-0.361243
-0.361244
-0.361245
-0.361246
-0.361247
-0.361248
-0.361249
-0.36125
-0.361251
-0.361252
-0.361253
-0.361253
-0.361254
-0.361255
-0.361256
-0.361257
-0.361258
-0.361259
-0.36126
-0.361261
-0.361261
-0.361262
-0.361263
-0.361264
-0.361265
-0.361266
-0.361266
-0.361267
-0.361268
-0.361269
-0.36127
-0.36127
-0.361271
-0.361272
-0.361273
-0.361274
-0.361274
-0.361275
-0.361276
-0.361277
-0.361277
-0.361278
-0.361279
-0.36128
-0.361281
-0.361281
-0.361282
-0.361283
-0.361283
-0.361284
-0.361285
-0.361286
-0.361286
-0.361287
-0.361288
-0.361288
-0.361289
-0.36129
-0.361291
-0.361291
-0.361292
-0.361293
-0.361293
-0.361294
-0.361295
-0.361296
-0.361296
-0.361297
-0.361298
-0.361298
-0.361299
-0.3613
-0.3613
-0.361301
-0.361302
-0.361302
-0.361303
-0.361303
-0.361304
-0.361305
-0.361305
-0.361306
-0.361307
-0.361307
-0.361308
-0.361309
-0.36131
-0.3515
-0.351504
-0.351514
-0.35153
-0.351549
-0.351572
-0.351597
-0.351624
-0.351652
-0.351681
-0.351711
-0.351742
-0.351773
-0.351805
-0.351836
-0.351868
-0.3519
-0.351932
-0.351964
-0.351995
-0.352027
-0.352058
-0.35209
-0.352121
-0.352151
-0.352182
-0.352212
-0.352242
-0.352271
-0.352301
-0.35233
-0.352358
-0.352387
-0.352415
-0.352443
-0.35247
-0.352497
-0.352524
-0.352551
-0.352577
-0.352603
-0.352628
-0.352654
-0.352679
-0.352703
-0.352728
-0.352752
-0.352776
-0.352799
-0.352823
-0.352846
-0.352869
-0.352891
-0.352913
-0.352935
-0.352957
-0.352979
-0.353
-0.353021
-0.353042
-0.353063
-0.353083
-0.353103
-0.353123
-0.353143
-0.353162
-0.353182
-0.353201
-0.35322
-0.353238
-0.353257
-0.353275
-0.353293
-0.353311
-0.353329
-0.353347
-0.353364
-0.353381
-0.353399
-0.353416
-0.353432
-0.353449
-0.353466
-0.353482
-0.353498
-0.353514
-0.35353
-0.353546
-0.353562
-0.353577
-0.353592
-0.353608
-0.353623
-0.353638
-0.353653
-0.353667
-0.353682
-0.353697
-0.353711
-0.353725
-0.35374
-0.353754
-0.353768
-0.353782
-0.353795
-0.353809
-0.353823
-0.353836
-0.35385
-0.353863
-0.353876
-0.353889
-0.353903
-0.353916
-0.353928
-0.353941
-0.353954
-0.353967
-0.353979
-0.353992
-0.354004
-0.354016
-0.354029
-0.354041
-0.354053
-0.354065
-0.354077
-0.354089
-0.3541
-0.354112
-0.354124
-0.354135
-0.354147
-0.354158
-0.354169
-0.35418
-0.354192
-0.354203
-0.354214
-0.354225
-0.354236
-0.354247
-0.354257
-0.354268
-0.354279
-0.354289
-0.3543
-0.35431
-0.35432
-0.354331
-0.354341
-0.354351
-0.354361
-0.354371
-0.354381
-0.354391
-0.354401
-0.354411
-0.354421
-0.35443
-0.35444
-0.35445
-0.354459
-0.354468
-0.354478
-0.354487
-0.354496
-0.354506
-0.354515
-0.354524
-0.354533
-0.354542
-0.354551
-0.35456
-0.354569
-0.354577
-0.354586
-0.354595
-0.354603
-0.354612
-0.35462
-0.354629
-0.354637
-0.354645
-0.354654
-0.354662
-0.35467
-0.354678
-0.354686
-0.354694
-0.354702
-0.35471
-0.354718
-0.354725
-0.354733
-0.354741
-0.354749
-0.354756
-0.354764
-0.354771
-0.354779
-0.354786
-0.354793
-0.354801
-0.354808
-0.354815
-0.354822
-0.35483
-0.354837
-0.354844
-0.354851
-0.354858
-0.354865
-0.354871
-0.354878
-0.354885
-0.354892
-0.354898
-0.354905
-0.354912
-0.354918
-0.354925
-0.354931
-0.354937
-0.354944
-0.35495
-0.354956
-0.354963
-0.354969
-0.354975
-0.354981
-0.354987
-0.354993
-0.354999
-0.355005
-0.355011
-0.355017
-0.355023
-0.355029
-0.355035
-0.355041
-0.355046
-0.355052
-0.355058
-0.355063
-0.355069
-0.355074
-0.35508
-0.355085
-0.355091
-0.355096
-0.355102
-0.355107
-0.355113
-0.355118
-0.355123
-0.355129
-0.355134
-0.355139
-0.355144
-0.355149
-0.355155
-0.35516
-0.355165
-0.35517
-0.355175
-0.35518
-0.355185
-0.35519
-0.355195
-0.3552
-0.355205
-0.35521
-0.355215
-0.35522
-0.355224
-0.355229
-0.355234
-0.355239
-0.355244
-0.355248
-0.355253
-0.355258
-0.355262
-0.355267
-0.355272
-0.355276
-0.355281
-0.355286
-0.35529
-0.355295
-0.355299
-0.355304
-0.355308
-0.355313
-0.355317
-0.355322
-0.355326
-0.35533
-0.355335
-0.355339
-0.355343
-0.355348
-0.355352
-0.355356
-0.355361
-0.355365
-0.355369
-0.355373
-0.355378
-0.355382
-0.355386
-0.35539
-0.355394
-0.355398
-0.355402
-0.355407
-0.355411
-0.355415
-0.355419
-0.355423
-0.355427
-0.355431
-0.355435
-0.355439
-0.355443
-0.355446
-0.35545
-0.355454
-0.355458
-0.355462
-0.355466
-0.35547
-0.355474
-0.355477
-0.355481
-0.355485
-0.355489
-0.355492
-0.355496
-0.3555
-0.355504
-0.355507
-0.355511
-0.355515
-0.355518
-0.355522
-0.355526
-0.355529
-0.355533
-0.355536
-0.35554
-0.355544
-0.355547
-0.355551
-0.355554
-0.355558
-0.355561
-0.355565
-0.355568
-0.355572
-0.355575
-0.355578
-0.355582
-0.355585
-0.355589
-0.355592
-0.355595
-0.355599
-0.355602
-0.355605
-0.355609
-0.355612
-0.355615
-0.355619
-0.355622
-0.355625
-0.355628
-0.355631
-0.355635
-0.355638
-0.355641
-0.355644
-0.355647
-0.35565
-0.355653
-0.355656
-0.355659
-0.355662
-0.355665
-0.355668
-0.355671
-0.355675
-0.355677
-0.35568
-0.355683
-0.355686
-0.355689
-0.355692
-0.355695
-0.355698
-0.355701
-0.355704
-0.355706
-0.355709
-0.355712
-0.355715
-0.355718
-0.35572
-0.355723
-0.355726
-0.355729
-0.355731
-0.355734
-0.355737
-0.355739
-0.355742
-0.355745
-0.355747
-0.35575
-0.355753
-0.355755
-0.355758
-0.35576
-0.355763
-0.355765
-0.355768
-0.355771
-0.355773
-0.355776
-0.355778
-0.35578
-0.355783
-0.355785
-0.355788
-0.35579
-0.355793
-0.355795
-0.355797
-0.3558
-0.355802
-0.355804
-0.355807
-0.355809
-0.355811
-0.355814
-0.355816
-0.355818
-0.35582
-0.355823
-0.355825
-0.355827
-0.355829
-0.355832
-0.355834
-0.355836
-0.355838
-0.35584
-0.355842
-0.355845
-0.355847
-0.355849
-0.355851
-0.355853
-0.355855
-0.355857
-0.355859
-0.355861
-0.355863
-0.355865
-0.355867
-0.355869
-0.355871
-0.355873
-0.355875
-0.355877
-0.355879
-0.355881
-0.355883
-0.355885
-0.355887
-0.355889
-0.355891
-0.355892
-0.355894
-0.355896
-0.355898
-0.3559
-0.355902
-0.355903
-0.355905
-0.355907
-0.355909
-0.355911
-0.355912
-0.355914
-0.355916
-0.355917
-0.355919
-0.355921
-0.355923
-0.355924
-0.355926
-0.355928
-0.355929
-0.355931
-0.355933
-0.355934
-0.355936
-0.355938
-0.355939
-0.355941
-0.355942
-0.355944
-0.355946
-0.355947
-0.355949
-0.35595
-0.355952
-0.355953
-0.355955
-0.355956
-0.355958
-0.355959
-0.355961
-0.355962
-0.355964
-0.355965
-0.355967
-0.355968
-0.35597
-0.355971
-0.355973
-0.355974
-0.355976
-0.355977
-0.355978
-0.35598
-0.355981
-0.355982
-0.355984
-0.355985
-0.355987
-0.355988
-0.355989
-0.355991
-0.355992
-0.355993
-0.355995
-0.355996
-0.355997
-0.355998
-0.356
-0.356001
-0.356002
-0.356004
-0.356005
-0.356006
-0.356007
-0.356009
-0.35601
-0.356011
-0.356012
-0.356014
-0.356015
-0.356016
-0.356017
-0.356018
-0.35602
-0.356021
-0.356022
-0.356023
-0.356024
-0.356025
-0.356027
-0.356028
-0.356029
-0.35603
-0.356031
-0.356032
-0.356034
-0.356035
-0.356036
-0.356037
-0.356038
-0.356039
-0.35604
-0.356041
-0.356042
-0.356043
-0.356045
-0.356046
-0.356047
-0.356048
-0.356049
-0.35605
-0.356051
-0.356052
-0.356053
-0.356054
-0.356055
-0.345334
-0.345336
-0.345344
-0.345356
-0.345372
-0.345391
-0.345412
-0.345435
-0.34546
-0.345485
-0.345512
-0.34554
-0.345569
-0.345598
-0.345627
-0.345657
-0.345687
-0.345717
-0.345747
-0.345777
-0.345807
-0.345838
-0.345868
-0.345898
-0.345928
-0.345958
-0.345987
-0.346017
-0.346046
-0.346075
-0.346104
-0.346133
-0.346161
-0.346189
-0.346217
-0.346245
-0.346272
-0.3463
-0.346327
-0.346353
-0.34638
-0.346406
-0.346432
-0.346458
-0.346484
-0.346509
-0.346534
-0.346559
-0.346584
-0.346608
-0.346632
-0.346656
-0.34668
-0.346704
-0.346727
-0.34675
-0.346773
-0.346796
-0.346818
-0.34684
-0.346862
-0.346884
-0.346906
-0.346927
-0.346949
-0.34697
-0.346991
-0.347012
-0.347032
-0.347053
-0.347073
-0.347093
-0.347113
-0.347133
-0.347152
-0.347172
-0.347191
-0.34721
-0.347229
-0.347248
-0.347266
-0.347285
-0.347303
-0.347322
-0.34734
-0.347358
-0.347375
-0.347393
-0.347411
-0.347428
-0.347446
-0.347463
-0.34748
-0.347497
-0.347514
-0.34753
-0.347547
-0.347564
-0.34758
-0.347596
-0.347612
-0.347629
-0.347645
-0.34766
-0.347676
-0.347692
-0.347708
-0.347723
-0.347738
-0.347754
-0.347769
-0.347784
-0.347799
-0.347814
-0.347829
-0.347844
-0.347859
-0.347873
-0.347888
-0.347902
-0.347917
-0.347931
-0.347945
-0.347959
-0.347973
-0.347987
-0.348001
-0.348015
-0.348028
-0.348042
-0.348055
-0.348069
-0.348082
-0.348096
-0.348109
-0.348122
-0.348135
-0.348148
-0.348161
-0.348174
-0.348187
-0.3482
-0.348212
-0.348225
-0.348237
-0.34825
-0.348262
-0.348274
-0.348287
-0.348299
-0.348311
-0.348323
-0.348335
-0.348347
-0.348359
-0.348371
-0.348382
-0.348394
-0.348406
-0.348417
-0.348428
-0.34844
-0.348451
-0.348463
-0.348474
-0.348485
-0.348496
-0.348507
-0.348518
-0.348529
-0.34854
-0.348551
-0.348561
-0.348572
-0.348583
-0.348593
-0.348604
-0.348614
-0.348625
-0.348635
-0.348645
-0.348655
-0.348666
-0.348676
-0.348686
-0.348696
-0.348706
-0.348716
-0.348726
-0.348735
-0.348745
-0.348755
-0.348764
-0.348774
-0.348783
-0.348793
-0.348802
-0.348812
-0.348821
-0.34883
-0.348839
-0.348849
-0.348858
-0.348867
-0.348876
-0.348885
-0.348894
-0.348902
-0.348911
-0.34892
-0.348929
-0.348937
-0.348946
-0.348954
-0.348963
-0.348971
-0.34898
-0.348988
-0.348996
-0.349005
-0.349013
-0.349021
-0.349029
-0.349037
-0.349045
-0.349053
-0.349061
-0.349069
-0.349077
-0.349085
-0.349093
-0.3491
-0.349108
-0.349116
-0.349123
-0.349131
-0.349138
-0.349146
-0.349153
-0.349161
-0.349168
-0.349175
-0.349183
-0.34919
-0.349197
-0.349204
-0.349211
-0.349218
-0.349226
-0.349233
-0.34924
-0.349247
-0.349253
-0.34926
-0.349267
-0.349274
-0.349281
-0.349288
-0.349294
-0.349301
-0.349308
-0.349314
-0.349321
-0.349328
-0.349334
-0.349341
-0.349347
-0.349354
-0.34936
-0.349367
-0.349373
-0.349379
-0.349386
-0.349392
-0.349398
-0.349405
-0.349411
-0.349417
-0.349423
-0.349429
-0.349436
-0.349442
-0.349448
-0.349454
-0.34946
-0.349466
-0.349472
-0.349478
-0.349484
-0.34949
-0.349496
-0.349502
-0.349507
-0.349513
-0.349519
-0.349525
-0.349531
-0.349536
-0.349542
-0.349548
-0.349553
-0.349559
-0.349565
-0.34957
-0.349576
-0.349582
-0.349587
-0.349593
-0.349598
-0.349604
-0.349609
-0.349615
-0.34962
-0.349625
-0.349631
-0.349636
-0.349641
-0.349647
-0.349652
-0.349657
-0.349663
-0.349668
-0.349673
-0.349678
-0.349684
-0.349689
-0.349694
-0.349699
-0.349704
-0.349709
-0.349714
-0.349719
-0.349724
-0.349729
-0.349734
-0.349739
-0.349744
-0.349749
-0.349754
-0.349759
-0.349764
-0.349769
-0.349774
-0.349779
-0.349784
-0.349788
-0.349793
-0.349798
-0.349803
-0.349807
-0.349812
-0.349817
-0.349822
-0.349826
-0.349831
-0.349836
-0.34984
-0.349845
-0.34985
-0.349854
-0.349859
-0.349863
-0.349868
-0.349872
-0.349877
-0.349881
-0.349886
-0.34989
-0.349895
-0.349899
-0.349904
-0.349908
-0.349912
-0.349917
-0.349921
-0.349925
-0.34993
-0.349934
-0.349938
-0.349942
-0.349947
-0.349951
-0.349955
-0.349959
-0.349963
-0.349968
-0.349972
-0.349976
-0.34998
-0.349984
-0.349988
-0.349992
-0.349996
-0.35
-0.350004
-0.350008
-0.350012
-0.350016
-0.35002
-0.350024
-0.350028
-0.350031
-0.350035
-0.350039
-0.350043
-0.350047
-0.350051
-0.350054
-0.350058
-0.350062
-0.350066
-0.350069
-0.350073
-0.350077
-0.35008
-0.350084
-0.350088
-0.350091
-0.350095
-0.350098
-0.350102
-0.350105
-0.350109
-0.350113
-0.350116
-0.350119
-0.350123
-0.350126
-0.35013
-0.350133
-0.350137
-0.35014
-0.350143
-0.350147
-0.35015
-0.350153
-0.350157
-0.35016
-0.350163
-0.350167
-0.35017
-0.350173
-0.350176
-0.350179
-0.350183
-0.350186
-0.350189
-0.350192
-0.350195
-0.350198
-0.350201
-0.350205
-0.350208
-0.350211
-0.350214
-0.350217
-0.35022
-0.350223
-0.350226
-0.350229
-0.350232
-0.350235
-0.350237
-0.35024
-0.350243
-0.350246
-0.350249
-0.350252
-0.350255
-0.350257
-0.35026
-0.350263
-0.350266
-0.350269
-0.350271
-0.350274
-0.350277
-0.350279
-0.350282
-0.350285
-0.350288
-0.35029
-0.350293
-0.350295
-0.350298
-0.350301
-0.350303
-0.350306
-0.350308
-0.350311
-0.350313
-0.350316
-0.350318
-0.350321
-0.350323
-0.350325
-0.350328
-0.35033
-0.350333
-0.350335
-0.350337
-0.35034
-0.350342
-0.350344
-0.350347
-0.350349
-0.350351
-0.350354
-0.350356
-0.350358
-0.350361
-0.350363
-0.350365
-0.350367
-0.35037
-0.350372
-0.350374
-0.350376
-0.350378
-0.35038
-0.350383
-0.350385
-0.350387
-0.350389
-0.350391
-0.350393
-0.350395
-0.350397
-0.350399
-0.350401
-0.350403
-0.350405
-0.350407
-0.350409
-0.350411
-0.350413
-0.350415
-0.350417
-0.350419
-0.350421
-0.350423
-0.350425
-0.350427
-0.350429
-0.350431
-0.350432
-0.350434
-0.350436
-0.350438
-0.35044
-0.350442
-0.350444
-0.350445
-0.350447
-0.350449
-0.350451
-0.350453
-0.350454
-0.350456
-0.350458
-0.35046
-0.350461
-0.350463
-0.350465
-0.350466
-0.350468
-0.35047
-0.350472
-0.350473
-0.350475
-0.350477
-0.350478
-0.35048
-0.350482
-0.350483
-0.350485
-0.350486
-0.350488
-0.35049
-0.350491
-0.350493
-0.350494
-0.350496
-0.350497
-0.350499
-0.350501
-0.350502
-0.350504
-0.350505
-0.350507
-0.350508
-0.35051
-0.350511
-0.350513
-0.350514
-0.350516
-0.350517
-0.350519
-0.35052
-0.350522
-0.350523
-0.339167
-0.339169
-0.339175
-0.339185
-0.339198
-0.339214
-0.339232
-0.339253
-0.339274
-0.339297
-0.339322
-0.339347
-0.339373
-0.339399
-0.339427
-0.339454
-0.339482
-0.33951
-0.339539
-0.339567
-0.339596
-0.339625
-0.339653
-0.339682
-0.339711
-0.339739
-0.339768
-0.339796
-0.339824
-0.339853
-0.339881
-0.339909
-0.339936
-0.339964
-0.339991
-0.340019
-0.340046
-0.340072
-0.340099
-0.340126
-0.340152
-0.340178
-0.340204
-0.34023
-0.340255
-0.34028
-0.340306
-0.34033
-0.340355
-0.34038
-0.340404
-0.340428
-0.340452
-0.340476
-0.3405
-0.340523
-0.340546
-0.340569
-0.340592
-0.340615
-0.340637
-0.34066
-0.340682
-0.340704
-0.340726
-0.340748
-0.340769
-0.340791
-0.340812
-0.340833
-0.340854
-0.340875
-0.340895
-0.340916
-0.340936
-0.340956
-0.340976
-0.340996
-0.341016
-0.341036
-0.341055
-0.341074
-0.341094
-0.341113
-0.341132
-0.341151
-0.34117
-0.341188
-0.341207
-0.341225
-0.341243
-0.341262
-0.34128
-0.341298
-0.341315
-0.341333
-0.341351
-0.341369
-0.341386
-0.341403
-0.341421
-0.341438
-0.341455
-0.341472
-0.341489
-0.341505
-0.341522
-0.341539
-0.341555
-0.341572
-0.341588
-0.341604
-0.34162
-0.341637
-0.341653
-0.341668
-0.341684
-0.3417
-0.341716
-0.341731
-0.341747
-0.341762
-0.341778
-0.341793
-0.341808
-0.341823
-0.341838
-0.341853
-0.341868
-0.341883
-0.341897
-0.341912
-0.341927
-0.341941
-0.341955
-0.34197
-0.341984
-0.341998
-0.342012
-0.342026
-0.34204
-0.342054
-0.342068
-0.342082
-0.342096
-0.342109
-0.342123
-0.342136
-0.34215
-0.342163
-0.342176
-0.34219
-0.342203
-0.342216
-0.342229
-0.342242
-0.342255
-0.342268
-0.342281
-0.342293
-0.342306
-0.342319
-0.342331
-0.342344
-0.342356
-0.342368
-0.342381
-0.342393
-0.342405
-0.342417
-0.342429
-0.342441
-0.342453
-0.342465
-0.342477
-0.342489
-0.342501
-0.342512
-0.342524
-0.342535
-0.342547
-0.342558
-0.34257
-0.342581
-0.342592
-0.342603
-0.342615
-0.342626
-0.342637
-0.342648
-0.342659
-0.34267
-0.34268
-0.342691