/*--------------------------------*- C++ -*----------------------------------*\
  =========                 |
  \\      /  F ield         | OpenFOAM: The Open Source CFD Toolbox
   \\    /   O peration     | Website:  https://openfoam.org
    \\  /    A nd           | Version:  7
     \\/     M anipulation  |
\*---------------------------------------------------------------------------*/
FoamFile
{
    version     2.0;
    format      ascii;
    class       volVectorField;
    location    "167";
    object      U;
}
// * * * * * * * * * * * * * * * * * * * * * * * * * * * * * * * * * * * * * //

dimensions      [0 1 -1 0 0 0 0];

internalField   nonuniform List<vector> 
36000
(
(1.84578 0.00286818 0)
(1.83914 0.00677552 0)
(1.83097 0.00886789 0)
(1.82072 0.0100021 0)
(1.80958 0.010685 0)
(1.79841 0.011056 0)
(1.78735 0.0111676 0)
(1.77639 0.0110926 0)
(1.76558 0.0108978 0)
(1.75499 0.0106255 0)
(1.74464 0.0103086 0)
(1.73457 0.00996209 0)
(1.72476 0.00959794 0)
(1.71521 0.00922742 0)
(1.70594 0.0088578 0)
(1.69692 0.00849386 0)
(1.68816 0.00813883 0)
(1.67966 0.00779484 0)
(1.67139 0.00746327 0)
(1.66337 0.0071449 0)
(1.65557 0.00684009 0)
(1.64799 0.0065489 0)
(1.64063 0.00627117 0)
(1.63348 0.00600662 0)
(1.62652 0.00575484 0)
(1.61976 0.00551537 0)
(1.61319 0.00528771 0)
(1.6068 0.00507134 0)
(1.60058 0.00486574 0)
(1.59453 0.00467036 0)
(1.58865 0.0044847 0)
(1.58292 0.00430825 0)
(1.57734 0.00414051 0)
(1.57191 0.00398102 0)
(1.56662 0.00382934 0)
(1.56146 0.00368506 0)
(1.55644 0.00354778 0)
(1.55154 0.00341714 0)
(1.54677 0.00329279 0)
(1.54211 0.00317438 0)
(1.53757 0.00306162 0)
(1.53314 0.0029542 0)
(1.52882 0.00285185 0)
(1.52459 0.00275429 0)
(1.52047 0.00266128 0)
(1.51644 0.0025726 0)
(1.51251 0.002488 0)
(1.50866 0.00240729 0)
(1.5049 0.00233026 0)
(1.50123 0.00225674 0)
(1.49763 0.00218653 0)
(1.49411 0.00211947 0)
(1.49067 0.00205541 0)
(1.4873 0.0019942 0)
(1.484 0.00193568 0)
(1.48077 0.00187974 0)
(1.4776 0.00182623 0)
(1.4745 0.00177504 0)
(1.47146 0.00172606 0)
(1.46848 0.00167918 0)
(1.46555 0.00163429 0)
(1.46268 0.00159129 0)
(1.45987 0.0015501 0)
(1.45711 0.00151062 0)
(1.45439 0.00147277 0)
(1.45173 0.00143648 0)
(1.44912 0.00140167 0)
(1.44655 0.00136826 0)
(1.44402 0.00133619 0)
(1.44154 0.0013054 0)
(1.4391 0.00127583 0)
(1.43671 0.00124741 0)
(1.43435 0.00122009 0)
(1.43203 0.00119383 0)
(1.42974 0.00116857 0)
(1.4275 0.00114426 0)
(1.42528 0.00112087 0)
(1.42311 0.00109835 0)
(1.42096 0.00107666 0)
(1.41885 0.00105577 0)
(1.41677 0.00103565 0)
(1.41472 0.00101627 0)
(1.4127 0.000997597 0)
(1.41071 0.00097962 0)
(1.40874 0.000962324 0)
(1.40681 0.000945712 0)
(1.4049 0.000929801 0)
(1.40301 0.000914649 0)
(1.40115 0.000900373 0)
(1.39931 0.000887241 0)
(1.3975 0.000875754 0)
(1.3957 0.000867039 0)
(1.39392 0.000861764 0)
(1.39215 0.000859192 0)
(1.39039 0.000858179 0)
(1.38865 0.000857957 0)
(1.38691 0.000858118 0)
(1.38519 0.000858415 0)
(1.38347 0.000858664 0)
(1.38177 0.000858738 0)
(1.38008 0.000858551 0)
(1.3784 0.000858053 0)
(1.37673 0.000857213 0)
(1.37506 0.000856014 0)
(1.37341 0.000854449 0)
(1.37177 0.000852519 0)
(1.37014 0.00085023 0)
(1.36852 0.000847594 0)
(1.36692 0.000844621 0)
(1.36532 0.000841327 0)
(1.36373 0.000837729 0)
(1.36216 0.000833843 0)
(1.36059 0.000829686 0)
(1.35904 0.000825275 0)
(1.3575 0.000820628 0)
(1.35597 0.000815762 0)
(1.35445 0.000810693 0)
(1.35294 0.000805438 0)
(1.35145 0.000800013 0)
(1.34996 0.000794433 0)
(1.34849 0.000788713 0)
(1.34703 0.000782867 0)
(1.34557 0.000776909 0)
(1.34413 0.000770851 0)
(1.34271 0.000764708 0)
(1.34129 0.000758492 0)
(1.33988 0.000752213 0)
(1.33849 0.000745881 0)
(1.3371 0.000739509 0)
(1.33573 0.000733105 0)
(1.33437 0.000726679 0)
(1.33302 0.000720237 0)
(1.33168 0.000713786 0)
(1.33035 0.000707335 0)
(1.32903 0.000700887 0)
(1.32772 0.000694448 0)
(1.32643 0.000688019 0)
(1.32514 0.000681603 0)
(1.32386 0.000675201 0)
(1.3226 0.000668815 0)
(1.32134 0.000662442 0)
(1.3201 0.000656081 0)
(1.31886 0.000649729 0)
(1.31764 0.000643383 0)
(1.31642 0.000637041 0)
(1.31522 0.0006307 0)
(1.31402 0.000624358 0)
(1.31284 0.000618015 0)
(1.31166 0.000611665 0)
(1.3105 0.000605304 0)
(1.30934 0.000598929 0)
(1.3082 0.000592535 0)
(1.30706 0.000586117 0)
(1.30594 0.000579671 0)
(1.30482 0.000573191 0)
(1.30372 0.000566676 0)
(1.30262 0.000560123 0)
(1.30154 0.000553534 0)
(1.30046 0.000546907 0)
(1.2994 0.000540242 0)
(1.29834 0.000533543 0)
(1.29729 0.000526812 0)
(1.29626 0.000520056 0)
(1.29523 0.000513283 0)
(1.29422 0.000506504 0)
(1.29321 0.000499732 0)
(1.29222 0.000492975 0)
(1.29123 0.000486244 0)
(1.29026 0.000479553 0)
(1.28929 0.000472918 0)
(1.28833 0.000466355 0)
(1.28739 0.000459876 0)
(1.28645 0.000453492 0)
(1.28553 0.000447215 0)
(1.28461 0.000441053 0)
(1.2837 0.000435013 0)
(1.2828 0.0004291 0)
(1.28191 0.000423331 0)
(1.28103 0.000417698 0)
(1.28015 0.000412174 0)
(1.27929 0.00040679 0)
(1.27843 0.000401488 0)
(1.27758 0.000396142 0)
(1.27674 0.000390865 0)
(1.27591 0.000385785 0)
(1.27509 0.000380829 0)
(1.27427 0.000375873 0)
(1.27346 0.000370844 0)
(1.27266 0.000365987 0)
(1.27187 0.000361435 0)
(1.27108 0.000356869 0)
(1.27031 0.000352189 0)
(1.26954 0.000347505 0)
(1.26877 0.00034284 0)
(1.26802 0.000338342 0)
(1.26727 0.000334039 0)
(1.26652 0.000329887 0)
(1.26579 0.000325762 0)
(1.26506 0.000321555 0)
(1.26434 0.000317348 0)
(1.26363 0.000313117 0)
(1.26292 0.00030896 0)
(1.26222 0.000304833 0)
(1.26153 0.000300644 0)
(1.26084 0.000296598 0)
(1.26016 0.000292693 0)
(1.25949 0.000288984 0)
(1.25882 0.000285712 0)
(1.25816 0.000282624 0)
(1.25751 0.000279283 0)
(1.25686 0.000275776 0)
(1.25622 0.000272401 0)
(1.25558 0.000269186 0)
(1.25495 0.000265976 0)
(1.25433 0.00026272 0)
(1.25371 0.000259664 0)
(1.25309 0.000256987 0)
(1.25249 0.000254516 0)
(1.25188 0.000252167 0)
(1.25128 0.000249692 0)
(1.25069 0.000246998 0)
(1.2501 0.000244487 0)
(1.24952 0.000242397 0)
(1.24894 0.000240528 0)
(1.24836 0.000238543 0)
(1.24779 0.000236398 0)
(1.24723 0.000234254 0)
(1.24667 0.000232247 0)
(1.24611 0.000230359 0)
(1.24556 0.000228512 0)
(1.24501 0.000226763 0)
(1.24446 0.000225265 0)
(1.24392 0.000223912 0)
(1.24338 0.000222523 0)
(1.24285 0.000221057 0)
(1.24232 0.000219466 0)
(1.24179 0.00021784 0)
(1.24127 0.000216293 0)
(1.24075 0.000214833 0)
(1.24024 0.000213333 0)
(1.23972 0.000211787 0)
(1.23922 0.000210396 0)
(1.23871 0.000209219 0)
(1.23821 0.000208077 0)
(1.23771 0.000206815 0)
(1.23721 0.000205547 0)
(1.23672 0.000204479 0)
(1.23623 0.000203521 0)
(1.23574 0.000202385 0)
(1.23525 0.000201129 0)
(1.23477 0.000199979 0)
(1.23429 0.00019888 0)
(1.23381 0.000197702 0)
(1.23334 0.000196515 0)
(1.23287 0.000195418 0)
(1.2324 0.000194354 0)
(1.23194 0.000193211 0)
(1.23147 0.000192063 0)
(1.23101 0.000191017 0)
(1.23055 0.000189963 0)
(1.2301 0.000188883 0)
(1.22965 0.000187846 0)
(1.2292 0.000186854 0)
(1.22875 0.000185857 0)
(1.2283 0.000184827 0)
(1.22786 0.000183841 0)
(1.22742 0.000182917 0)
(1.22698 0.000182002 0)
(1.22655 0.000181071 0)
(1.22611 0.000180177 0)
(1.22568 0.000179335 0)
(1.22525 0.000178514 0)
(1.22482 0.000177746 0)
(1.2244 0.000176979 0)
(1.22397 0.000176211 0)
(1.22355 0.00017548 0)
(1.22313 0.000174734 0)
(1.22271 0.000174014 0)
(1.2223 0.000173263 0)
(1.22188 0.000172449 0)
(1.22147 0.000171629 0)
(1.22106 0.000170767 0)
(1.22065 0.000169864 0)
(1.22025 0.000168948 0)
(1.21984 0.000168027 0)
(1.21944 0.000167101 0)
(1.21904 0.000166168 0)
(1.21864 0.00016523 0)
(1.21825 0.000164291 0)
(1.21785 0.000163351 0)
(1.21746 0.000162406 0)
(1.21707 0.00016145 0)
(1.21668 0.000160482 0)
(1.21629 0.000159506 0)
(1.21591 0.00015853 0)
(1.21553 0.00015756 0)
(1.21515 0.000156593 0)
(1.21477 0.000155617 0)
(1.21439 0.000154632 0)
(1.21401 0.000153661 0)
(1.21364 0.000152715 0)
(1.21327 0.000151775 0)
(1.2129 0.000150863 0)
(1.21253 0.000150007 0)
(1.21217 0.000149179 0)
(1.2118 0.00014836 0)
(1.21144 0.000147554 0)
(1.21108 0.000146771 0)
(1.21072 0.000146011 0)
(1.21037 0.000145271 0)
(1.21001 0.000144552 0)
(1.20966 0.00014386 0)
(1.2093 0.000143192 0)
(1.20895 0.000142547 0)
(1.2086 0.000141919 0)
(1.20826 0.000141296 0)
(1.20791 0.000140675 0)
(1.20757 0.000140077 0)
(1.20722 0.000139504 0)
(1.20688 0.000138956 0)
(1.20654 0.000138426 0)
(1.2062 0.000137894 0)
(1.20586 0.000137343 0)
(1.20553 0.000136777 0)
(1.20519 0.000136213 0)
(1.20486 0.000135668 0)
(1.20453 0.000135128 0)
(1.2042 0.00013458 0)
(1.20387 0.00013402 0)
(1.20354 0.000133461 0)
(1.20321 0.000132902 0)
(1.20289 0.000132334 0)
(1.20256 0.000131744 0)
(1.20224 0.000131137 0)
(1.20192 0.000130529 0)
(1.2016 0.000129922 0)
(1.20128 0.000129304 0)
(1.20097 0.000128661 0)
(1.20065 0.000127988 0)
(1.20034 0.00012729 0)
(1.20002 0.000126573 0)
(1.19971 0.000125845 0)
(1.1994 0.00012511 0)
(1.19909 0.000124363 0)
(1.19879 0.00012361 0)
(1.19848 0.000122854 0)
(1.19818 0.00012211 0)
(1.19787 0.000121377 0)
(1.19757 0.000120666 0)
(1.19727 0.000119974 0)
(1.19698 0.000119289 0)
(1.19668 0.000118634 0)
(1.19638 0.000118035 0)
(1.19609 0.000117469 0)
(1.1958 0.00011692 0)
(1.1955 0.000116358 0)
(1.19521 0.000115768 0)
(1.19493 0.000115142 0)
(1.19464 0.0001145 0)
(1.19435 0.000113863 0)
(1.19407 0.000113208 0)
(1.19378 0.000112513 0)
(1.1935 0.00011179 0)
(1.19322 0.000111097 0)
(1.19294 0.000110386 0)
(1.19266 0.000109646 0)
(1.19238 0.000108977 0)
(1.19211 0.000108461 0)
(1.19183 0.000108066 0)
(1.19156 0.000107644 0)
(1.19129 0.000107151 0)
(1.19102 0.000106445 0)
(1.19075 0.000105547 0)
(1.19048 0.00010456 0)
(1.19022 0.000103486 0)
(1.18995 0.000102693 0)
(1.18969 0.000102037 0)
(1.18943 0.000100941 0)
(1.18917 9.9496e-05 0)
(1.18892 9.80739e-05 0)
(1.18866 9.67707e-05 0)
(1.18841 9.5506e-05 0)
(1.18816 9.39691e-05 0)
(1.18792 9.18613e-05 0)
(1.18767 8.93888e-05 0)
(1.18744 8.72862e-05 0)
(1.1872 8.5379e-05 0)
(1.18696 8.37821e-05 0)
(1.18673 8.29035e-05 0)
(1.1865 8.23766e-05 0)
(1.18627 8.22979e-05 0)
(1.18604 8.21029e-05 0)
(1.18581 8.18634e-05 0)
(1.18558 8.17071e-05 0)
(1.18535 8.10812e-05 0)
(1.18513 8.0994e-05 0)
(1.1849 8.07557e-05 0)
(1.18467 7.98826e-05 0)
(1.18445 7.88391e-05 0)
(1.18423 7.63955e-05 0)
(1.18401 7.43968e-05 0)
(1.18379 7.43083e-05 0)
(1.18358 7.50132e-05 0)
(1.18336 7.52929e-05 0)
(1.18315 7.46208e-05 0)
(1.18294 7.37502e-05 0)
(1.18273 7.30245e-05 0)
(1.18252 7.24666e-05 0)
(1.18231 7.23572e-05 0)
(1.18211 7.2629e-05 0)
(1.1819 7.2583e-05 0)
(1.1817 7.2081e-05 0)
(1.18149 7.11315e-05 0)
(1.18129 7.01533e-05 0)
(1.18109 6.88782e-05 0)
(1.18089 6.69498e-05 0)
(1.18069 6.55025e-05 0)
(1.18049 6.50208e-05 0)
(1.1803 6.39577e-05 0)
(1.18011 6.33111e-05 0)
(1.17991 6.42948e-05 0)
(1.17972 6.63148e-05 0)
(1.17953 6.82951e-05 0)
(1.17933 6.85209e-05 0)
(1.17914 6.75414e-05 0)
(1.17896 6.59401e-05 0)
(1.17877 6.4135e-05 0)
(1.17859 6.24801e-05 0)
(1.17841 6.09913e-05 0)
(1.17823 5.97831e-05 0)
(1.17805 5.91446e-05 0)
(1.17787 5.90052e-05 0)
(1.17769 5.92513e-05 0)
(1.17751 6.01553e-05 0)
(1.17733 5.91957e-05 0)
(1.17716 5.69803e-05 0)
(1.17698 5.57611e-05 0)
(1.17681 5.47709e-05 0)
(1.17664 5.55809e-05 0)
(1.17647 5.69274e-05 0)
(1.1763 5.67231e-05 0)
(1.17613 5.58213e-05 0)
(1.17597 5.43488e-05 0)
(1.17581 5.33107e-05 0)
(1.17564 5.19531e-05 0)
(1.17548 4.97898e-05 0)
(1.17532 4.69271e-05 0)
(1.17517 4.4926e-05 0)
(1.17501 4.44177e-05 0)
(1.17486 4.3612e-05 0)
(1.1747 4.39082e-05 0)
(1.17455 4.63011e-05 0)
(1.1744 4.91137e-05 0)
(1.17424 5.08957e-05 0)
(1.17409 5.20581e-05 0)
(1.17393 5.25638e-05 0)
(1.17378 5.22683e-05 0)
(1.17362 5.19844e-05 0)
(1.17347 5.16409e-05 0)
(1.17332 5.00929e-05 0)
(1.17317 4.83548e-05 0)
(1.17302 4.79739e-05 0)
(1.17287 4.77958e-05 0)
(1.17272 4.77644e-05 0)
(1.17257 4.92099e-05 0)
(1.17242 5.06256e-05 0)
(1.17227 5.07926e-05 0)
(1.17212 4.99233e-05 0)
(1.17198 4.85449e-05 0)
(1.17183 4.7294e-05 0)
(1.17169 4.61219e-05 0)
(1.17155 4.52592e-05 0)
(1.17141 4.47595e-05 0)
(1.17127 4.33491e-05 0)
(1.17113 4.24521e-05 0)
(1.17099 4.42539e-05 0)
(1.17085 4.60462e-05 0)
(1.17071 4.6879e-05 0)
(1.17058 4.70323e-05 0)
(1.17044 4.62853e-05 0)
(1.17031 4.52164e-05 0)
(1.17017 4.43164e-05 0)
(1.17004 4.29953e-05 0)
(1.16991 4.09411e-05 0)
(1.16978 3.97326e-05 0)
(1.16966 3.91213e-05 0)
(1.16953 3.76915e-05 0)
(1.1694 3.70823e-05 0)
(1.16928 3.87993e-05 0)
(1.16915 4.0477e-05 0)
(1.16902 4.06945e-05 0)
(1.1689 3.97945e-05 0)
(1.16878 3.79804e-05 0)
(1.16866 3.65067e-05 0)
(1.16854 3.48665e-05 0)
(1.16842 3.33273e-05 0)
(1.1683 3.32037e-05 0)
(1.16818 3.35284e-05 0)
(1.16806 3.4472e-05 0)
(1.16794 3.6435e-05 0)
(1.16782 3.81942e-05 0)
(1.1677 3.85709e-05 0)
(1.16758 3.79411e-05 0)
(1.16747 3.7069e-05 0)
(1.16735 3.64731e-05 0)
(1.16723 3.53053e-05 0)
(1.16712 3.4074e-05 0)
(1.167 3.34575e-05 0)
(1.16689 3.30442e-05 0)
(1.16678 3.39711e-05 0)
(1.16667 3.59869e-05 0)
(1.16655 3.71168e-05 0)
(1.16644 3.74038e-05 0)
(1.16633 3.73178e-05 0)
(1.16622 3.67189e-05 0)
(1.16611 3.57386e-05 0)
(1.166 3.48306e-05 0)
(1.16589 3.34371e-05 0)
(1.16578 3.3555e-05 0)
(1.16567 3.40154e-05 0)
(1.16556 3.38342e-05 0)
(1.16546 3.49375e-05 0)
(1.16535 3.55767e-05 0)
(1.16524 3.54399e-05 0)
(1.16514 3.47787e-05 0)
(1.16503 3.42263e-05 0)
(1.16493 3.39734e-05 0)
(1.16482 3.38999e-05 0)
(1.16472 3.32163e-05 0)
(1.16461 3.25519e-05 0)
(1.16451 3.27121e-05 0)
(1.16441 3.39116e-05 0)
(1.16431 3.41556e-05 0)
(1.1642 3.43422e-05 0)
(1.1641 3.57509e-05 0)
(1.164 3.62466e-05 0)
(1.1639 3.65479e-05 0)
(1.1638 3.64741e-05 0)
(1.1637 3.56769e-05 0)
(1.1636 3.43017e-05 0)
(1.1635 3.14459e-05 0)
(1.16341 2.92357e-05 0)
(1.16331 2.90242e-05 0)
(1.16322 2.89817e-05 0)
(1.16312 2.75128e-05 0)
(1.16303 2.61103e-05 0)
(1.16294 2.59745e-05 0)
(1.16285 2.74425e-05 0)
(1.16276 2.85227e-05 0)
(1.16267 2.84804e-05 0)
(1.16258 3.0192e-05 0)
(1.16249 3.19528e-05 0)
(1.1624 3.23225e-05 0)
(1.16231 3.16319e-05 0)
(1.16222 3.04553e-05 0)
(1.16213 2.92678e-05 0)
(1.16205 2.84655e-05 0)
(1.16196 2.80541e-05 0)
(1.16187 2.78326e-05 0)
(1.16179 2.78461e-05 0)
(1.1617 2.80286e-05 0)
(1.16162 2.80165e-05 0)
(1.16153 2.78273e-05 0)
(1.16144 2.78399e-05 0)
(1.16136 2.80817e-05 0)
(1.16127 2.85731e-05 0)
(1.16118 2.7928e-05 0)
(1.1611 2.70121e-05 0)
(1.16101 2.77247e-05 0)
(1.16092 2.79072e-05 0)
(1.16084 2.69265e-05 0)
(1.16076 2.64138e-05 0)
(1.16067 2.65603e-05 0)
(1.16059 2.81256e-05 0)
(1.1605 2.91647e-05 0)
(1.16042 2.97465e-05 0)
(1.16034 3.10927e-05 0)
(1.16025 3.1135e-05 0)
(1.16017 3.06602e-05 0)
(1.16008 3.04555e-05 0)
(1.16 3.05475e-05 0)
(1.15992 3.05059e-05 0)
(1.15984 2.98709e-05 0)
(1.15976 2.8841e-05 0)
(1.15968 2.76262e-05 0)
(1.1596 2.61543e-05 0)
(1.15952 2.52022e-05 0)
(1.15944 2.38059e-05 0)
(1.15936 2.28955e-05 0)
(1.15929 2.31609e-05 0)
(1.15921 2.31716e-05 0)
(1.15913 2.41905e-05 0)
(1.15906 2.51254e-05 0)
(1.15898 2.55887e-05 0)
(1.1589 2.64449e-05 0)
(1.15882 2.86534e-05 0)
(1.15874 3.08314e-05 0)
(1.15865 3.37075e-05 0)
(1.15858 3.42378e-05 0)
(1.15844 4.02922e-05 0)
(1.85151 0.00308871 0)
(1.85592 0.00713378 0)
(1.85997 0.00896043 0)
(1.86314 0.00982493 0)
(1.86572 0.010365 0)
(1.86793 0.0106826 0)
(1.86973 0.0108024 0)
(1.87107 0.0107949 0)
(1.87199 0.0107246 0)
(1.87254 0.0106224 0)
(1.87277 0.0104994 0)
(1.8727 0.0103616 0)
(1.87237 0.0102142 0)
(1.8718 0.0100611 0)
(1.87102 0.00990448 0)
(1.87005 0.00974544 0)
(1.86891 0.00958485 0)
(1.86762 0.00942337 0)
(1.8662 0.00926154 0)
(1.86466 0.00909978 0)
(1.863 0.00893846 0)
(1.86126 0.00877788 0)
(1.85942 0.00861832 0)
(1.85751 0.00846004 0)
(1.85554 0.00830326 0)
(1.8535 0.00814818 0)
(1.85141 0.007995 0)
(1.84927 0.00784387 0)
(1.8471 0.00769492 0)
(1.84488 0.00754828 0)
(1.84264 0.00740405 0)
(1.84037 0.00726234 0)
(1.83808 0.00712321 0)
(1.83577 0.00698671 0)
(1.83344 0.0068529 0)
(1.8311 0.00672179 0)
(1.82875 0.00659343 0)
(1.8264 0.00646781 0)
(1.82404 0.00634495 0)
(1.82167 0.00622485 0)
(1.81931 0.00610749 0)
(1.81694 0.00599285 0)
(1.81458 0.00588091 0)
(1.81222 0.00577164 0)
(1.80987 0.005665 0)
(1.80752 0.00556097 0)
(1.80518 0.0054595 0)
(1.80285 0.00536054 0)
(1.80053 0.00526406 0)
(1.79821 0.00516999 0)
(1.79591 0.0050783 0)
(1.79362 0.00498893 0)
(1.79134 0.00490183 0)
(1.78908 0.00481695 0)
(1.78683 0.00473424 0)
(1.78459 0.00465364 0)
(1.78236 0.0045751 0)
(1.78015 0.00449857 0)
(1.77796 0.004424 0)
(1.77578 0.00435133 0)
(1.77361 0.00428051 0)
(1.77146 0.0042115 0)
(1.76932 0.00414424 0)
(1.7672 0.00407868 0)
(1.7651 0.00401478 0)
(1.76301 0.00395249 0)
(1.76094 0.00389176 0)
(1.75888 0.00383255 0)
(1.75684 0.00377482 0)
(1.75481 0.00371851 0)
(1.75281 0.0036636 0)
(1.75081 0.00361003 0)
(1.74883 0.00355778 0)
(1.74687 0.0035068 0)
(1.74493 0.00345705 0)
(1.74299 0.00340851 0)
(1.74108 0.00336113 0)
(1.73918 0.00331489 0)
(1.73729 0.00326975 0)
(1.73542 0.00322569 0)
(1.73357 0.00318269 0)
(1.73173 0.00314071 0)
(1.72991 0.00309975 0)
(1.7281 0.00305979 0)
(1.7263 0.00302083 0)
(1.72452 0.00298288 0)
(1.72275 0.00294598 0)
(1.721 0.00291022 0)
(1.71926 0.00287575 0)
(1.71754 0.00284292 0)
(1.71583 0.0028121 0)
(1.71413 0.00278174 0)
(1.71246 0.00275212 0)
(1.7108 0.00272502 0)
(1.70916 0.0026998 0)
(1.70755 0.00267582 0)
(1.70594 0.00265275 0)
(1.70436 0.00263042 0)
(1.70279 0.00260865 0)
(1.70124 0.00258734 0)
(1.6997 0.00256641 0)
(1.69818 0.00254582 0)
(1.69668 0.00252553 0)
(1.69519 0.00250551 0)
(1.69371 0.00248574 0)
(1.69224 0.00246621 0)
(1.69079 0.00244689 0)
(1.68935 0.00242778 0)
(1.68792 0.00240887 0)
(1.6865 0.00239014 0)
(1.6851 0.00237158 0)
(1.68371 0.00235319 0)
(1.68232 0.00233497 0)
(1.68095 0.0023169 0)
(1.67959 0.00229898 0)
(1.67824 0.0022812 0)
(1.6769 0.00226357 0)
(1.67556 0.00224608 0)
(1.67424 0.00222872 0)
(1.67293 0.00221149 0)
(1.67162 0.0021944 0)
(1.67033 0.00217744 0)
(1.66904 0.00216061 0)
(1.66776 0.00214391 0)
(1.66649 0.00212734 0)
(1.66523 0.00211089 0)
(1.66397 0.00209458 0)
(1.66273 0.0020784 0)
(1.66149 0.00206235 0)
(1.66026 0.00204643 0)
(1.65904 0.00203064 0)
(1.65782 0.00201498 0)
(1.65662 0.00199946 0)
(1.65542 0.00198407 0)
(1.65422 0.00196882 0)
(1.65304 0.00195369 0)
(1.65186 0.0019387 0)
(1.65069 0.00192383 0)
(1.64953 0.00190909 0)
(1.64837 0.00189448 0)
(1.64722 0.00187998 0)
(1.64607 0.00186559 0)
(1.64494 0.00185131 0)
(1.64381 0.00183713 0)
(1.64268 0.00182304 0)
(1.64157 0.00180904 0)
(1.64045 0.00179512 0)
(1.63935 0.00178127 0)
(1.63825 0.00176749 0)
(1.63716 0.00175378 0)
(1.63607 0.00174011 0)
(1.63499 0.00172649 0)
(1.63392 0.00171291 0)
(1.63285 0.00169935 0)
(1.63179 0.00168582 0)
(1.63073 0.00167231 0)
(1.62968 0.00165882 0)
(1.62863 0.00164533 0)
(1.62759 0.00163185 0)
(1.62656 0.00161837 0)
(1.62553 0.0016049 0)
(1.6245 0.00159143 0)
(1.62349 0.00157798 0)
(1.62247 0.00156454 0)
(1.62147 0.00155113 0)
(1.62046 0.00153774 0)
(1.61947 0.0015244 0)
(1.61848 0.00151111 0)
(1.61749 0.00149787 0)
(1.61651 0.00148472 0)
(1.61553 0.00147165 0)
(1.61456 0.00145868 0)
(1.6136 0.00144583 0)
(1.61264 0.0014331 0)
(1.61168 0.00142051 0)
(1.61074 0.00140806 0)
(1.60979 0.00139576 0)
(1.60885 0.00138361 0)
(1.60792 0.00137164 0)
(1.60699 0.00135982 0)
(1.60607 0.00134818 0)
(1.60515 0.00133676 0)
(1.60424 0.00132554 0)
(1.60333 0.00131447 0)
(1.60243 0.00130351 0)
(1.60153 0.00129267 0)
(1.60064 0.00128198 0)
(1.59975 0.00127138 0)
(1.59887 0.00126072 0)
(1.59799 0.00124998 0)
(1.59712 0.00123927 0)
(1.59626 0.00122861 0)
(1.59539 0.00121808 0)
(1.59454 0.00120765 0)
(1.59368 0.0011972 0)
(1.59284 0.00118672 0)
(1.592 0.00117629 0)
(1.59116 0.00116603 0)
(1.59033 0.00115592 0)
(1.5895 0.00114591 0)
(1.58868 0.00113611 0)
(1.58786 0.00112645 0)
(1.58705 0.0011167 0)
(1.58624 0.00110693 0)
(1.58544 0.0010975 0)
(1.58464 0.00108831 0)
(1.58385 0.00107901 0)
(1.58306 0.00106959 0)
(1.58227 0.00106014 0)
(1.5815 0.00105109 0)
(1.58072 0.00104237 0)
(1.57995 0.00103364 0)
(1.57919 0.00102522 0)
(1.57843 0.00101694 0)
(1.57768 0.00100833 0)
(1.57693 0.000999634 0)
(1.57618 0.000991162 0)
(1.57545 0.000982872 0)
(1.57471 0.000974777 0)
(1.57399 0.000967009 0)
(1.57326 0.000959402 0)
(1.57254 0.000951652 0)
(1.57183 0.00094405 0)
(1.57112 0.000936905 0)
(1.57042 0.000930179 0)
(1.56972 0.000923513 0)
(1.56902 0.000916511 0)
(1.56833 0.000909504 0)
(1.56765 0.00090274 0)
(1.56697 0.000896087 0)
(1.56629 0.000889517 0)
(1.56562 0.00088293 0)
(1.56495 0.000876536 0)
(1.56429 0.00087057 0)
(1.56363 0.000864688 0)
(1.56297 0.000858658 0)
(1.56232 0.00085266 0)
(1.56168 0.000846718 0)
(1.56103 0.000840911 0)
(1.5604 0.00083539 0)
(1.55976 0.000830046 0)
(1.55913 0.000824792 0)
(1.5585 0.000819722 0)
(1.55788 0.000814698 0)
(1.55726 0.000809731 0)
(1.55665 0.000804855 0)
(1.55603 0.000799865 0)
(1.55543 0.000795051 0)
(1.55482 0.00079024 0)
(1.55422 0.000785348 0)
(1.55362 0.000780573 0)
(1.55303 0.000775839 0)
(1.55244 0.000771283 0)
(1.55185 0.000766919 0)
(1.55126 0.000762569 0)
(1.55068 0.000758025 0)
(1.5501 0.0007535 0)
(1.54953 0.000749149 0)
(1.54895 0.000744844 0)
(1.54838 0.000740601 0)
(1.54782 0.000736424 0)
(1.54725 0.000732312 0)
(1.54669 0.00072829 0)
(1.54613 0.000724388 0)
(1.54558 0.000720581 0)
(1.54502 0.000716859 0)
(1.54447 0.000713204 0)
(1.54392 0.000709631 0)
(1.54338 0.000706144 0)
(1.54283 0.000702693 0)
(1.54229 0.000699265 0)
(1.54175 0.000695844 0)
(1.54122 0.000692434 0)
(1.54068 0.000689057 0)
(1.54015 0.000685676 0)
(1.53962 0.000682287 0)
(1.5391 0.000678889 0)
(1.53858 0.000675497 0)
(1.53805 0.000672161 0)
(1.53754 0.000668884 0)
(1.53702 0.000665673 0)
(1.53651 0.00066255 0)
(1.53599 0.000659507 0)
(1.53549 0.000656525 0)
(1.53498 0.00065358 0)
(1.53447 0.000650653 0)
(1.53397 0.000647732 0)
(1.53347 0.000644811 0)
(1.53297 0.00064189 0)
(1.53247 0.000638968 0)
(1.53198 0.00063604 0)
(1.53148 0.000633101 0)
(1.53099 0.000630153 0)
(1.5305 0.000627202 0)
(1.53001 0.000624255 0)
(1.52953 0.000621311 0)
(1.52905 0.000618375 0)
(1.52856 0.00061541 0)
(1.52808 0.000612417 0)
(1.52761 0.000609467 0)
(1.52713 0.00060658 0)
(1.52666 0.000603651 0)
(1.52618 0.000600753 0)
(1.52571 0.000597988 0)
(1.52525 0.000595249 0)
(1.52478 0.000592498 0)
(1.52432 0.000589747 0)
(1.52385 0.000587014 0)
(1.52339 0.000584311 0)
(1.52293 0.000581645 0)
(1.52248 0.000579015 0)
(1.52202 0.000576427 0)
(1.52157 0.000573876 0)
(1.52112 0.00057136 0)
(1.52067 0.000568875 0)
(1.52022 0.000566384 0)
(1.51978 0.000563897 0)
(1.51933 0.000561475 0)
(1.51889 0.000559092 0)
(1.51845 0.000556748 0)
(1.51802 0.000554464 0)
(1.51758 0.000552204 0)
(1.51714 0.000549928 0)
(1.51671 0.000547621 0)
(1.51628 0.000545329 0)
(1.51585 0.000543091 0)
(1.51542 0.000540862 0)
(1.515 0.000538635 0)
(1.51457 0.00053641 0)
(1.51415 0.000534193 0)
(1.51373 0.000531982 0)
(1.51331 0.000529773 0)
(1.51289 0.00052757 0)
(1.51248 0.000525365 0)
(1.51206 0.000523158 0)
(1.51165 0.000520947 0)
(1.51124 0.000518749 0)
(1.51083 0.000516556 0)
(1.51042 0.000514364 0)
(1.51001 0.000512161 0)
(1.5096 0.000509948 0)
(1.5092 0.000507749 0)
(1.5088 0.000505542 0)
(1.5084 0.000503337 0)
(1.508 0.000501134 0)
(1.5076 0.00049894 0)
(1.5072 0.000496756 0)
(1.50681 0.000494591 0)
(1.50641 0.000492445 0)
(1.50602 0.000490294 0)
(1.50563 0.000488173 0)
(1.50524 0.00048605 0)
(1.50485 0.000483967 0)
(1.50446 0.000481893 0)
(1.50408 0.000479837 0)
(1.50369 0.000477778 0)
(1.50331 0.000475739 0)
(1.50293 0.000473736 0)
(1.50255 0.000471726 0)
(1.50217 0.000469745 0)
(1.5018 0.000467731 0)
(1.50142 0.00046572 0)
(1.50105 0.00046371 0)
(1.50067 0.000461553 0)
(1.5003 0.000459384 0)
(1.49993 0.00045726 0)
(1.49956 0.000455094 0)
(1.4992 0.000452847 0)
(1.49883 0.000450525 0)
(1.49847 0.000448201 0)
(1.49811 0.000445813 0)
(1.49775 0.00044349 0)
(1.49739 0.000441098 0)
(1.49703 0.000438588 0)
(1.49668 0.000436297 0)
(1.49632 0.00043362 0)
(1.49597 0.000430476 0)
(1.49562 0.000427796 0)
(1.49527 0.000425063 0)
(1.49492 0.000421966 0)
(1.49458 0.000418905 0)
(1.49423 0.000415298 0)
(1.49389 0.000411797 0)
(1.49355 0.000408729 0)
(1.49321 0.00040634 0)
(1.49287 0.000403785 0)
(1.49253 0.000401067 0)
(1.49219 0.000398974 0)
(1.49185 0.000396261 0)
(1.49151 0.000393526 0)
(1.49118 0.00039119 0)
(1.49085 0.00038896 0)
(1.49052 0.000386723 0)
(1.49019 0.000384521 0)
(1.48987 0.000382485 0)
(1.48954 0.000380652 0)
(1.48922 0.000378849 0)
(1.4889 0.00037712 0)
(1.48858 0.000374971 0)
(1.48826 0.000372567 0)
(1.48794 0.000370098 0)
(1.48763 0.000367766 0)
(1.48731 0.000365081 0)
(1.487 0.000362284 0)
(1.48669 0.000360446 0)
(1.48638 0.000358548 0)
(1.48607 0.000356605 0)
(1.48576 0.000354491 0)
(1.48545 0.000352307 0)
(1.48515 0.000350086 0)
(1.48485 0.000348238 0)
(1.48455 0.000346624 0)
(1.48425 0.000344451 0)
(1.48395 0.000342323 0)
(1.48365 0.000340663 0)
(1.48336 0.000339019 0)
(1.48306 0.00033728 0)
(1.48277 0.000335351 0)
(1.48248 0.000333343 0)
(1.48219 0.000331309 0)
(1.48191 0.000329192 0)
(1.48162 0.000326675 0)
(1.48134 0.000324091 0)
(1.48106 0.000321756 0)
(1.48078 0.000319699 0)
(1.4805 0.000317303 0)
(1.48022 0.000314636 0)
(1.47994 0.000312962 0)
(1.47967 0.000311457 0)
(1.47939 0.000309696 0)
(1.47912 0.000308089 0)
(1.47885 0.00030658 0)
(1.47858 0.000305023 0)
(1.47831 0.00030346 0)
(1.47804 0.000301177 0)
(1.47778 0.00029927 0)
(1.47752 0.000297612 0)
(1.47725 0.000295558 0)
(1.47699 0.000292962 0)
(1.47673 0.000290736 0)
(1.47647 0.000289059 0)
(1.47621 0.000286996 0)
(1.47595 0.000285112 0)
(1.4757 0.000282485 0)
(1.47544 0.000280204 0)
(1.47518 0.000278512 0)
(1.47493 0.000277031 0)
(1.47468 0.000275103 0)
(1.47443 0.000273274 0)
(1.47418 0.000272939 0)
(1.47393 0.000272146 0)
(1.47368 0.000270142 0)
(1.47343 0.000268377 0)
(1.47319 0.000266622 0)
(1.47295 0.000264968 0)
(1.47271 0.000264119 0)
(1.47248 0.000263924 0)
(1.47224 0.000263457 0)
(1.472 0.000262361 0)
(1.47177 0.00026122 0)
(1.47154 0.000259582 0)
(1.47131 0.000257924 0)
(1.47108 0.000256924 0)
(1.47085 0.000256122 0)
(1.47062 0.000254938 0)
(1.4704 0.000253645 0)
(1.47017 0.000252349 0)
(1.46995 0.000250945 0)
(1.46972 0.000248882 0)
(1.4695 0.000246793 0)
(1.46928 0.000245118 0)
(1.46906 0.000243346 0)
(1.46884 0.000241697 0)
(1.46862 0.000240241 0)
(1.46841 0.000238746 0)
(1.4682 0.000237273 0)
(1.46798 0.000235844 0)
(1.46777 0.000234185 0)
(1.46756 0.00023297 0)
(1.46735 0.00023147 0)
(1.46715 0.000229255 0)
(1.46694 0.000227698 0)
(1.46673 0.00022712 0)
(1.46652 0.000226435 0)
(1.46632 0.000224437 0)
(1.46612 0.000222976 0)
(1.46591 0.00022286 0)
(1.46571 0.000221707 0)
(1.46551 0.000219492 0)
(1.46531 0.000217602 0)
(1.46512 0.000216029 0)
(1.46492 0.000214863 0)
(1.46472 0.000214984 0)
(1.46452 0.000214787 0)
(1.46433 0.000213917 0)
(1.46413 0.000213082 0)
(1.46394 0.000211954 0)
(1.46374 0.000210707 0)
(1.46355 0.000208999 0)
(1.46336 0.000207032 0)
(1.46317 0.000205104 0)
(1.46299 0.000203524 0)
(1.4628 0.000202305 0)
(1.46262 0.000200629 0)
(1.46244 0.000198968 0)
(1.46226 0.000197972 0)
(1.46208 0.000196981 0)
(1.4619 0.000196848 0)
(1.46172 0.000197283 0)
(1.46154 0.000196954 0)
(1.46137 0.000195872 0)
(1.46119 0.000194643 0)
(1.46101 0.00019386 0)
(1.46084 0.000193021 0)
(1.46066 0.000191487 0)
(1.46049 0.000190398 0)
(1.46032 0.000189958 0)
(1.46015 0.000189012 0)
(1.45997 0.00018713 0)
(1.45981 0.00018535 0)
(1.45964 0.000184315 0)
(1.45947 0.000184131 0)
(1.4593 0.00018388 0)
(1.45914 0.000183582 0)
(1.45897 0.000183406 0)
(1.45881 0.000182327 0)
(1.45864 0.000181268 0)
(1.45848 0.000180272 0)
(1.45832 0.000179034 0)
(1.45816 0.000177619 0)
(1.45801 0.000176361 0)
(1.45785 0.000175388 0)
(1.45769 0.000174669 0)
(1.45754 0.000173399 0)
(1.45738 0.000171926 0)
(1.45723 0.000171063 0)
(1.45708 0.000169879 0)
(1.45693 0.000169068 0)
(1.45678 0.000168656 0)
(1.45662 0.000167822 0)
(1.45647 0.000166967 0)
(1.45632 0.000165697 0)
(1.45618 0.000164152 0)
(1.45603 0.000162487 0)
(1.45588 0.000161145 0)
(1.45573 0.000160443 0)
(1.45559 0.000159502 0)
(1.45544 0.000158416 0)
(1.4553 0.00015759 0)
(1.45515 0.000157171 0)
(1.45501 0.000156885 0)
(1.45487 0.000155646 0)
(1.45473 0.000154224 0)
(1.45459 0.000153178 0)
(1.45444 0.000152768 0)
(1.4543 0.000152238 0)
(1.45416 0.000151496 0)
(1.45403 0.000151345 0)
(1.45389 0.000150824 0)
(1.45375 0.00015045 0)
(1.45361 0.00015038 0)
(1.45348 0.000150159 0)
(1.45334 0.000149785 0)
(1.45321 0.000149272 0)
(1.45307 0.000148741 0)
(1.45294 0.000147885 0)
(1.45281 0.000146954 0)
(1.45268 0.000146035 0)
(1.45255 0.00014526 0)
(1.45243 0.000144392 0)
(1.4523 0.000143731 0)
(1.45217 0.000143737 0)
(1.45204 0.000143483 0)
(1.45192 0.000142687 0)
(1.45179 0.000141853 0)
(1.45167 0.000142013 0)
(1.45154 0.00014173 0)
(1.45142 0.000141182 0)
(1.45129 0.000140976 0)
(1.45117 0.00014031 0)
(1.45104 0.000138893 0)
(1.45092 0.000137507 0)
(1.4508 0.000136594 0)
(1.45068 0.000136016 0)
(1.45056 0.000135604 0)
(1.45044 0.000134719 0)
(1.45032 0.000133898 0)
(1.4502 0.000133911 0)
(1.45008 0.000133352 0)
(1.44996 0.000132965 0)
(1.44984 0.000133214 0)
(1.44972 0.000132775 0)
(1.44961 0.00013298 0)
(1.44949 0.000133796 0)
(1.44937 0.000134898 0)
(1.44925 0.000136823 0)
(1.44914 0.000138344 0)
(1.44902 0.000140202 0)
(1.44892 0.000140815 0)
(1.44875 0.000150392 0)
(1.85018 0.0015289 0)
(1.8514 0.00365634 0)
(1.85315 0.00505677 0)
(1.85499 0.00614033 0)
(1.85673 0.00706286 0)
(1.85838 0.00781194 0)
(1.85992 0.00838597 0)
(1.86132 0.00882217 0)
(1.86257 0.00915778 0)
(1.86368 0.00941405 0)
(1.86466 0.00960381 0)
(1.86551 0.00973811 0)
(1.86624 0.00982703 0)
(1.86686 0.00987898 0)
(1.86738 0.00990054 0)
(1.8678 0.00989694 0)
(1.86812 0.00987251 0)
(1.86836 0.00983086 0)
(1.86851 0.00977499 0)
(1.86859 0.00970738 0)
(1.8686 0.00963012 0)
(1.86853 0.00954494 0)
(1.8684 0.00945331 0)
(1.86821 0.00935647 0)
(1.86797 0.00925547 0)
(1.86767 0.00915121 0)
(1.86732 0.00904444 0)
(1.86692 0.0089358 0)
(1.86647 0.00882585 0)
(1.86598 0.00871507 0)
(1.86546 0.00860384 0)
(1.86489 0.00849253 0)
(1.86429 0.00838141 0)
(1.86366 0.00827075 0)
(1.86299 0.00816075 0)
(1.86229 0.00805161 0)
(1.86157 0.00794348 0)
(1.86082 0.00783649 0)
(1.86004 0.00773075 0)
(1.85924 0.00762634 0)
(1.85842 0.00752334 0)
(1.85758 0.00742182 0)
(1.85672 0.00732181 0)
(1.85584 0.00722337 0)
(1.85495 0.00712652 0)
(1.85403 0.00703128 0)
(1.85311 0.00693767 0)
(1.85217 0.00684569 0)