/*--------------------------------*- C++ -*----------------------------------*\
  =========                 |
  \\      /  F ield         | OpenFOAM: The Open Source CFD Toolbox
   \\    /   O peration     | Website:  https://openfoam.org
    \\  /    A nd           | Version:  7
     \\/     M anipulation  |
\*---------------------------------------------------------------------------*/
FoamFile
{
    version     2.0;
    format      ascii;
    class       volVectorField;
    location    "167";
    object      wallShearStress;
}
// * * * * * * * * * * * * * * * * * * * * * * * * * * * * * * * * * * * * * //

dimensions      [0 2 -2 0 0 0 0];

internalField   uniform (0 0 0);

boundaryField
{
    inlet
    {
        type            calculated;
        value           uniform (0 0 0);
    }
    outlet
    {
        type            calculated;
        value           uniform (0 0 0);
    }
    fixedWalls-bottom
    {
        type            calculated;
        value           nonuniform List<vector> 
600
(
(-0.0178151 6.10892e-05 0)
(-0.0179194 0.00011198 0)
(-0.0179789 0.000146183 0)
(-0.0179878 0.000166933 0)
(-0.0179655 0.00017833 0)
(-0.0179163 0.000183756 0)
(-0.0178537 0.000185394 0)
(-0.0177702 0.000184257 0)
(-0.0176811 0.000181242 0)
(-0.0175747 0.000176837 0)
(-0.0174661 0.000171691 0)
(-0.0173535 0.000166053 0)
(-0.0172347 0.000160136 0)
(-0.0171131 0.000154064 0)
(-0.0169899 0.000147998 0)
(-0.0168657 0.000142028 0)
(-0.0167413 0.000136158 0)
(-0.0166175 0.000130488 0)
(-0.0164944 0.000125009 0)
(-0.0163727 0.000119734 0)
(-0.0162524 0.000114705 0)
(-0.016134 0.000109873 0)
(-0.0160177 0.000105254 0)
(-0.0159036 0.000100878 0)
(-0.0157917 9.67057e-05 0)
(-0.0156822 9.27149e-05 0)
(-0.0155752 8.89306e-05 0)
(-0.0154707 8.53452e-05 0)
(-0.0153686 8.19347e-05 0)
(-0.015269 7.86749e-05 0)
(-0.0151719 7.55904e-05 0)
(-0.0150773 7.26732e-05 0)
(-0.014985 6.98839e-05 0)
(-0.0148952 6.72315e-05 0)
(-0.0148076 6.4725e-05 0)
(-0.0147224 6.23265e-05 0)
(-0.0146394 6.00457e-05 0)
(-0.0145585 5.78769e-05 0)
(-0.0144798 5.58149e-05 0)
(-0.0144031 5.38544e-05 0)
(-0.0143285 5.1975e-05 0)
(-0.0142558 5.01879e-05 0)
(-0.014185 4.85043e-05 0)
(-0.014116 4.68889e-05 0)
(-0.0140488 4.53384e-05 0)
(-0.0139833 4.38643e-05 0)
(-0.0139195 4.24634e-05 0)
(-0.0138572 4.11325e-05 0)
(-0.0137965 3.98379e-05 0)
(-0.0137374 3.86231e-05 0)
(-0.0136796 3.74696e-05 0)
(-0.0136232 3.63446e-05 0)
(-0.0135683 3.52764e-05 0)
(-0.0135146 3.42628e-05 0)
(-0.0134621 3.32862e-05 0)
(-0.0134109 3.23602e-05 0)
(-0.0133609 3.14675e-05 0)
(-0.013312 3.06065e-05 0)
(-0.0132642 2.97905e-05 0)
(-0.0132175 2.90182e-05 0)
(-0.0131717 2.82728e-05 0)
(-0.013127 2.75379e-05 0)
(-0.0130832 2.68425e-05 0)
(-0.0130404 2.61999e-05 0)
(-0.0129984 2.55643e-05 0)
(-0.0129573 2.49347e-05 0)
(-0.0129171 2.43546e-05 0)
(-0.0128776 2.3808e-05 0)
(-0.0128389 2.32645e-05 0)
(-0.0128009 2.27379e-05 0)
(-0.0127637 2.22423e-05 0)
(-0.0127272 2.17471e-05 0)
(-0.0126915 2.12813e-05 0)
(-0.0126563 2.08589e-05 0)
(-0.0126218 2.04202e-05 0)
(-0.0125879 2.00087e-05 0)
(-0.0125546 1.96093e-05 0)
(-0.012522 1.92213e-05 0)
(-0.0124898 1.88588e-05 0)
(-0.0124582 1.84921e-05 0)
(-0.0124271 1.815e-05 0)
(-0.0123966 1.78176e-05 0)
(-0.0123665 1.74943e-05 0)
(-0.012337 1.71947e-05 0)
(-0.0123078 1.68892e-05 0)
(-0.0122793 1.65924e-05 0)
(-0.0122511 1.63337e-05 0)
(-0.0122233 1.607e-05 0)
(-0.0121959 1.58171e-05 0)
(-0.0121689 1.55781e-05 0)
(-0.0121424 1.53732e-05 0)
(-0.0121161 1.52155e-05 0)
(-0.0120902 1.50979e-05 0)
(-0.0120645 1.50264e-05 0)
(-0.0120391 1.49587e-05 0)
(-0.012014 1.49148e-05 0)
(-0.011989 1.48755e-05 0)
(-0.0119643 1.48379e-05 0)
(-0.0119397 1.47999e-05 0)
(-0.0119153 1.47456e-05 0)
(-0.0118912 1.47029e-05 0)
(-0.0118673 1.46711e-05 0)
(-0.0118434 1.46212e-05 0)
(-0.0118198 1.45529e-05 0)
(-0.0117964 1.4495e-05 0)
(-0.0117731 1.4433e-05 0)
(-0.01175 1.43671e-05 0)
(-0.0117271 1.4283e-05 0)
(-0.0117044 1.42096e-05 0)
(-0.0116818 1.41469e-05 0)
(-0.0116594 1.40524e-05 0)
(-0.0116372 1.39691e-05 0)
(-0.0116151 1.38828e-05 0)
(-0.0115932 1.37796e-05 0)
(-0.0115715 1.36881e-05 0)
(-0.01155 1.35944e-05 0)
(-0.0115286 1.34984e-05 0)
(-0.0115074 1.33864e-05 0)
(-0.0114864 1.32868e-05 0)
(-0.0114655 1.31857e-05 0)
(-0.0114448 1.30689e-05 0)
(-0.0114243 1.29792e-05 0)
(-0.0114039 1.28602e-05 0)
(-0.0113838 1.27402e-05 0)
(-0.0113638 1.26476e-05 0)
(-0.0113439 1.25403e-05 0)
(-0.0113242 1.24183e-05 0)
(-0.0113047 1.22958e-05 0)
(-0.0112854 1.22013e-05 0)
(-0.0112662 1.20924e-05 0)
(-0.0112472 1.19693e-05 0)
(-0.0112283 1.18603e-05 0)
(-0.0112097 1.17513e-05 0)
(-0.0111911 1.16425e-05 0)
(-0.0111727 1.15198e-05 0)
(-0.0111546 1.14114e-05 0)
(-0.0111365 1.13033e-05 0)
(-0.0111187 1.11955e-05 0)
(-0.0111009 1.10881e-05 0)
(-0.0110834 1.0981e-05 0)
(-0.0110659 1.08743e-05 0)
(-0.0110487 1.07681e-05 0)
(-0.0110315 1.06622e-05 0)
(-0.0110146 1.05427e-05 0)
(-0.0109978 1.04516e-05 0)
(-0.0109811 1.03468e-05 0)
(-0.0109646 1.02286e-05 0)
(-0.0109482 1.01386e-05 0)
(-0.0109319 1.00351e-05 0)
(-0.0109159 9.91805e-06 0)
(-0.0109 9.82908e-06 0)
(-0.0108842 9.72652e-06 0)
(-0.0108686 9.62419e-06 0)
(-0.010853 9.52204e-06 0)
(-0.0108377 9.42005e-06 0)
(-0.0108224 9.31817e-06 0)
(-0.0108074 9.21639e-06 0)
(-0.0107925 9.11466e-06 0)
(-0.0107777 9.01299e-06 0)
(-0.0107631 8.92514e-06 0)
(-0.0107485 8.82352e-06 0)
(-0.0107342 8.70815e-06 0)
(-0.01072 8.60658e-06 0)
(-0.010706 8.51881e-06 0)
(-0.010692 8.41728e-06 0)
(-0.0106782 8.31583e-06 0)
(-0.0106646 8.21453e-06 0)
(-0.0106511 8.1134e-06 0)
(-0.0106377 8.01253e-06 0)
(-0.0106245 7.92571e-06 0)
(-0.0106114 7.82551e-06 0)
(-0.0105985 7.71207e-06 0)
(-0.0105857 7.62659e-06 0)
(-0.010573 7.528e-06 0)
(-0.0105605 7.43009e-06 0)
(-0.010548 7.34666e-06 0)
(-0.0105358 7.23671e-06 0)
(-0.0105237 7.14145e-06 0)
(-0.0105117 7.06102e-06 0)
(-0.0104998 6.98185e-06 0)
(-0.010488 6.89043e-06 0)
(-0.0104764 6.78676e-06 0)
(-0.0104649 6.71182e-06 0)
(-0.0104535 6.63829e-06 0)
(-0.0104422 6.55252e-06 0)
(-0.010431 6.46799e-06 0)
(-0.01042 6.39817e-06 0)
(-0.010409 6.32947e-06 0)
(-0.0103981 6.24824e-06 0)
(-0.0103874 6.16803e-06 0)
(-0.0103767 6.10239e-06 0)
(-0.0103662 6.02409e-06 0)
(-0.0103558 5.96028e-06 0)
(-0.0103454 5.89732e-06 0)
(-0.0103352 5.82168e-06 0)
(-0.010325 5.76043e-06 0)
(-0.010315 5.68637e-06 0)
(-0.0103051 5.62655e-06 0)
(-0.0102952 5.5673e-06 0)
(-0.0102855 5.49515e-06 0)
(-0.0102759 5.43719e-06 0)
(-0.0102663 5.37954e-06 0)
(-0.0102568 5.32207e-06 0)
(-0.0102474 5.25163e-06 0)
(-0.0102382 5.19504e-06 0)
(-0.0102289 5.13845e-06 0)
(-0.0102198 5.07e-06 0)
(-0.0102108 5.01743e-06 0)
(-0.0102018 4.96549e-06 0)
(-0.0101929 4.91317e-06 0)
(-0.0101842 4.86154e-06 0)
(-0.0101754 4.81125e-06 0)
(-0.0101668 4.74869e-06 0)
(-0.0101583 4.70083e-06 0)
(-0.0101498 4.66798e-06 0)
(-0.0101414 4.60855e-06 0)
(-0.0101331 4.56144e-06 0)
(-0.0101248 4.51581e-06 0)
(-0.0101167 4.47108e-06 0)
(-0.0101086 4.42589e-06 0)
(-0.0101006 4.36674e-06 0)
(-0.0100927 4.33431e-06 0)
(-0.0100848 4.28958e-06 0)
(-0.010077 4.2465e-06 0)
(-0.0100692 4.20362e-06 0)
(-0.0100615 4.14785e-06 0)
(-0.010054 4.12128e-06 0)
(-0.0100464 4.08259e-06 0)
(-0.0100389 4.04557e-06 0)
(-0.0100314 4.02405e-06 0)
(-0.0100241 3.97418e-06 0)
(-0.0100168 3.93537e-06 0)
(-0.0100095 3.8986e-06 0)
(-0.0100024 3.87736e-06 0)
(-0.00999517 3.84264e-06 0)
(-0.00998815 3.80802e-06 0)
(-0.00998106 3.7882e-06 0)
(-0.00997406 3.74292e-06 0)
(-0.00996717 3.72525e-06 0)
(-0.00996021 3.70738e-06 0)
(-0.00995335 3.66105e-06 0)
(-0.00994659 3.62781e-06 0)
(-0.00993985 3.60904e-06 0)
(-0.00993314 3.59169e-06 0)
(-0.00992643 3.56452e-06 0)
(-0.00991983 3.54015e-06 0)
(-0.00991325 3.51411e-06 0)
(-0.00990676 3.49979e-06 0)
(-0.00990021 3.48581e-06 0)
(-0.00989375 3.45795e-06 0)
(-0.00988732 3.42941e-06 0)
(-0.00988097 3.40284e-06 0)
(-0.00987463 3.39161e-06 0)
(-0.00986832 3.36693e-06 0)
(-0.00986209 3.35532e-06 0)
(-0.00985581 3.34243e-06 0)
(-0.00984961 3.30304e-06 0)
(-0.00984351 3.29225e-06 0)
(-0.00983735 3.28214e-06 0)
(-0.00983127 3.25892e-06 0)
(-0.0098252 3.24923e-06 0)
(-0.00981915 3.22631e-06 0)
(-0.00981318 3.20403e-06 0)
(-0.00980724 3.1959e-06 0)
(-0.0098013 3.18762e-06 0)
(-0.00979537 3.17901e-06 0)
(-0.00978947 3.15693e-06 0)
(-0.00978364 3.13414e-06 0)
(-0.00977783 3.12466e-06 0)
(-0.00977202 3.11546e-06 0)
(-0.00976623 3.10611e-06 0)
(-0.00976045 3.0833e-06 0)
(-0.00975477 3.06034e-06 0)
(-0.0097491 3.05081e-06 0)
(-0.00974343 3.04167e-06 0)
(-0.00973779 3.01949e-06 0)
(-0.00973221 2.9972e-06 0)
(-0.00972668 2.98796e-06 0)
(-0.00972113 2.97868e-06 0)
(-0.00971561 2.96951e-06 0)
(-0.00971009 2.94705e-06 0)
(-0.00970468 2.93809e-06 0)
(-0.00969918 2.92978e-06 0)
(-0.00969378 2.90862e-06 0)
(-0.00968839 2.90059e-06 0)
(-0.00968301 2.87913e-06 0)
(-0.00967771 2.87107e-06 0)
(-0.00967236 2.86281e-06 0)
(-0.00966708 2.84136e-06 0)
(-0.00966183 2.83331e-06 0)
(-0.00965657 2.8254e-06 0)
(-0.00965133 2.80426e-06 0)
(-0.00964617 2.79636e-06 0)
(-0.00964096 2.78871e-06 0)
(-0.00963581 2.76784e-06 0)
(-0.00963071 2.76005e-06 0)
(-0.00962558 2.75192e-06 0)
(-0.00962049 2.74347e-06 0)
(-0.00961539 2.72108e-06 0)
(-0.00961042 2.69823e-06 0)
(-0.00960543 2.70175e-06 0)
(-0.00960039 2.69161e-06 0)
(-0.00959544 2.6542e-06 0)
(-0.0095906 2.64292e-06 0)
(-0.00958567 2.63037e-06 0)
(-0.00958086 2.60283e-06 0)
(-0.00957605 2.589e-06 0)
(-0.00957128 2.57562e-06 0)
(-0.00956648 2.54701e-06 0)
(-0.00956184 2.51867e-06 0)
(-0.00955716 2.50295e-06 0)
(-0.00955254 2.48189e-06 0)
(-0.00954791 2.44272e-06 0)
(-0.0095434 2.40337e-06 0)
(-0.0095389 2.36446e-06 0)
(-0.0095345 2.32724e-06 0)
(-0.0095301 2.30857e-06 0)
(-0.00952573 2.29434e-06 0)
(-0.00952136 2.28312e-06 0)
(-0.00951698 2.26077e-06 0)
(-0.00951268 2.25308e-06 0)
(-0.0095083 2.24606e-06 0)
(-0.00950401 2.22571e-06 0)
(-0.00949973 2.21855e-06 0)
(-0.00949546 2.19853e-06 0)
(-0.00949128 2.19178e-06 0)
(-0.00948702 2.18509e-06 0)
(-0.00948286 2.17802e-06 0)
(-0.00947862 2.17064e-06 0)
(-0.00947448 2.15011e-06 0)
(-0.00947034 2.14256e-06 0)
(-0.00946621 2.12173e-06 0)
(-0.00946217 2.1138e-06 0)
(-0.00945806 2.10589e-06 0)
(-0.00945404 2.08459e-06 0)
(-0.00945002 2.07583e-06 0)
(-0.00944602 2.0667e-06 0)
(-0.00944203 2.05725e-06 0)
(-0.00943806 2.0349e-06 0)
(-0.00943416 2.02588e-06 0)
(-0.00943021 2.01608e-06 0)
(-0.00942634 1.99281e-06 0)
(-0.00942249 1.98332e-06 0)
(-0.00941864 1.96121e-06 0)
(-0.00941489 1.95232e-06 0)
(-0.00941106 1.94348e-06 0)
(-0.00940732 1.92171e-06 0)
(-0.00940358 1.91394e-06 0)
(-0.00939986 1.908e-06 0)
(-0.00939613 1.90343e-06 0)
(-0.00939242 1.88651e-06 0)
(-0.00938878 1.8834e-06 0)
(-0.00938508 1.87944e-06 0)
(-0.00938145 1.8602e-06 0)
(-0.00937785 1.85266e-06 0)
(-0.00937424 1.84489e-06 0)
(-0.00937065 1.83776e-06 0)
(-0.00936705 1.83113e-06 0)
(-0.00936347 1.81197e-06 0)
(-0.00935998 1.79387e-06 0)
(-0.00935648 1.80355e-06 0)
(-0.00935292 1.80148e-06 0)
(-0.00934942 1.78781e-06 0)
(-0.00934595 1.78787e-06 0)
(-0.00934247 1.78624e-06 0)
(-0.009339 1.76877e-06 0)
(-0.00933563 1.76232e-06 0)
(-0.00933216 1.75446e-06 0)
(-0.00932882 1.73173e-06 0)
(-0.00932546 1.72252e-06 0)
(-0.00932215 1.71501e-06 0)
(-0.00931882 1.70773e-06 0)
(-0.00931552 1.70024e-06 0)
(-0.00931223 1.67987e-06 0)
(-0.00930902 1.67444e-06 0)
(-0.00930575 1.67094e-06 0)
(-0.00930254 1.65542e-06 0)
(-0.00929937 1.65322e-06 0)
(-0.00929616 1.65072e-06 0)
(-0.00929298 1.6475e-06 0)
(-0.00928981 1.64247e-06 0)
(-0.0092866 1.62566e-06 0)
(-0.00928358 1.60906e-06 0)
(-0.0092804 1.61826e-06 0)
(-0.00927735 1.61107e-06 0)
(-0.00927419 1.58915e-06 0)
(-0.00927124 1.58145e-06 0)
(-0.0092681 1.55927e-06 0)
(-0.00926522 1.54735e-06 0)
(-0.00926217 1.53464e-06 0)
(-0.00925922 1.50752e-06 0)
(-0.00925638 1.48781e-06 0)
(-0.00925335 1.47153e-06 0)
(-0.00925058 1.44251e-06 0)
(-0.00924768 1.41093e-06 0)
(-0.00924485 1.3958e-06 0)
(-0.0092421 1.37474e-06 0)
(-0.00923913 1.33861e-06 0)
(-0.00923649 1.31652e-06 0)
(-0.00923355 1.27409e-06 0)
(-0.00923084 1.23348e-06 0)
(-0.00922786 1.2196e-06 0)
(-0.00922521 1.21216e-06 0)
(-0.0092226 1.19534e-06 0)
(-0.00921961 1.17732e-06 0)
(-0.00921605 1.21775e-06 0)
(-0.00921347 1.25366e-06 0)
(-0.00921153 1.27717e-06 0)
(-0.00920999 1.29077e-06 0)
(-0.00920802 1.29827e-06 0)
(-0.00920561 1.30242e-06 0)
(-0.00920319 1.3042e-06 0)
(-0.00920057 1.30637e-06 0)
(-0.00919805 1.3082e-06 0)
(-0.00919534 1.30542e-06 0)
(-0.00919286 1.28378e-06 0)
(-0.0091902 1.27424e-06 0)
(-0.00918777 1.24839e-06 0)
(-0.00918518 1.21818e-06 0)
(-0.00918283 1.19845e-06 0)
(-0.00918022 1.18279e-06 0)
(-0.00917792 1.17013e-06 0)
(-0.00917532 1.15679e-06 0)
(-0.00917301 1.13485e-06 0)
(-0.00917046 1.13109e-06 0)
(-0.00916805 1.14599e-06 0)
(-0.00916542 1.13373e-06 0)
(-0.009163 1.11758e-06 0)
(-0.0091603 1.13084e-06 0)
(-0.00915799 1.13156e-06 0)
(-0.00915526 1.11591e-06 0)
(-0.00915297 1.10586e-06 0)
(-0.00915011 1.09778e-06 0)
(-0.00914785 1.09698e-06 0)
(-0.00914463 1.08717e-06 0)
(-0.0091425 1.08342e-06 0)
(-0.00914023 1.07964e-06 0)
(-0.00913949 1.07767e-06 0)
(-0.00913658 1.0793e-06 0)
(-0.00913514 1.06682e-06 0)
(-0.00913426 1.03255e-06 0)
(-0.00913294 9.95098e-07 0)
(-0.00913103 9.73581e-07 0)
(-0.00912916 9.55099e-07 0)
(-0.00912704 9.26636e-07 0)
(-0.00912503 9.14672e-07 0)
(-0.00912298 9.00575e-07 0)
(-0.00912077 8.79437e-07 0)
(-0.00911889 8.84752e-07 0)
(-0.00911661 8.70263e-07 0)
(-0.00911446 8.45897e-07 0)
(-0.00911229 8.44033e-07 0)
(-0.00911026 8.30955e-07 0)
(-0.00910816 8.28192e-07 0)
(-0.00910626 8.32065e-07 0)
(-0.00910387 8.28229e-07 0)
(-0.00910202 8.33384e-07 0)
(-0.00909923 8.33381e-07 0)
(-0.00909746 8.40375e-07 0)
(-0.00909554 8.61831e-07 0)
(-0.00909542 8.71531e-07 0)
(-0.00909281 8.80102e-07 0)
(-0.00909244 8.76259e-07 0)
(-0.00909169 8.50429e-07 0)
(-0.00909032 8.33564e-07 0)
(-0.00908875 8.17656e-07 0)
(-0.00908701 7.94901e-07 0)
(-0.00908537 7.88728e-07 0)
(-0.00908361 7.7854e-07 0)
(-0.00908187 7.52343e-07 0)
(-0.00908025 7.41025e-07 0)
(-0.00907843 7.35655e-07 0)
(-0.00907682 7.31286e-07 0)
(-0.00907499 7.29306e-07 0)
(-0.00907332 7.26187e-07 0)
(-0.00907148 7.1349e-07 0)
(-0.00906959 6.83346e-07 0)
(-0.00906773 6.71576e-07 0)
(-0.00906593 6.63848e-07 0)
(-0.009064 6.56701e-07 0)
(-0.00906239 6.49663e-07 0)
(-0.00906023 6.51424e-07 0)
(-0.00905858 6.67637e-07 0)
(-0.00905612 6.96248e-07 0)
(-0.00905442 7.38622e-07 0)
(-0.00905297 7.38938e-07 0)
(-0.00905246 7.47283e-07 0)
(-0.00905139 7.6302e-07 0)
(-0.00904972 7.61053e-07 0)
(-0.00904802 7.375e-07 0)
(-0.00904595 7.29036e-07 0)
(-0.00904423 7.31548e-07 0)
(-0.00904168 7.39285e-07 0)
(-0.00903997 7.36834e-07 0)
(-0.00903829 7.20544e-07 0)
(-0.0090382 7.31763e-07 0)
(-0.00903579 7.2966e-07 0)
(-0.00903538 7.1989e-07 0)
(-0.00903461 7.08494e-07 0)
(-0.00903309 6.99552e-07 0)
(-0.00903165 6.77406e-07 0)
(-0.00902978 6.68103e-07 0)
(-0.00902816 6.68128e-07 0)
(-0.00902603 6.4272e-07 0)
(-0.00902453 6.40876e-07 0)
(-0.00902211 6.54142e-07 0)
(-0.00902062 6.51767e-07 0)
(-0.0090191 6.71839e-07 0)
(-0.00901929 6.86315e-07 0)
(-0.00901704 6.7357e-07 0)
(-0.0090167 6.6528e-07 0)
(-0.00901634 6.52355e-07 0)
(-0.00901528 6.3866e-07 0)
(-0.00901406 6.15026e-07 0)
(-0.00901254 6.10894e-07 0)
(-0.00901115 6.2363e-07 0)
(-0.00900945 6.26437e-07 0)
(-0.00900786 6.08444e-07 0)
(-0.00900617 6.01431e-07 0)
(-0.00900425 6.26686e-07 0)
(-0.009003 6.41461e-07 0)
(-0.00900114 6.35376e-07 0)
(-0.00899972 6.16291e-07 0)
(-0.00899851 6.19734e-07 0)
(-0.00899619 6.46957e-07 0)
(-0.00899474 6.44529e-07 0)
(-0.00899332 6.54983e-07 0)
(-0.00899383 6.91987e-07 0)
(-0.00899161 6.87545e-07 0)
(-0.00899178 6.81419e-07 0)
(-0.00899137 6.67022e-07 0)
(-0.00899038 6.32435e-07 0)
(-0.00898909 6.10236e-07 0)
(-0.00898758 5.9697e-07 0)
(-0.00898615 5.83481e-07 0)
(-0.00898472 5.48335e-07 0)
(-0.00898267 5.39623e-07 0)
(-0.00898089 5.60594e-07 0)
(-0.00897954 5.5722e-07 0)
(-0.00897734 5.72742e-07 0)
(-0.00897587 5.84129e-07 0)
(-0.00897437 5.83134e-07 0)
(-0.00897301 5.78167e-07 0)
(-0.00897167 5.78994e-07 0)
(-0.00897035 5.80178e-07 0)
(-0.00896996 5.51313e-07 0)
(-0.00896799 5.43805e-07 0)
(-0.00896789 5.6503e-07 0)
(-0.00896596 5.61125e-07 0)
(-0.00896555 5.40445e-07 0)
(-0.00896498 5.32251e-07 0)
(-0.00896372 4.99837e-07 0)
(-0.00896264 4.89386e-07 0)
(-0.00896156 5.0742e-07 0)
(-0.00895956 5.24325e-07 0)
(-0.00895829 5.3638e-07 0)
(-0.00895803 5.37613e-07 0)
(-0.00895606 5.53975e-07 0)
(-0.00895634 5.68693e-07 0)
(-0.00895443 5.71831e-07 0)
(-0.008954 5.69462e-07 0)
(-0.00895373 5.65924e-07 0)
(-0.00895275 5.65498e-07 0)
(-0.00895184 5.53552e-07 0)
(-0.00894948 5.51822e-07 0)
(-0.00894796 5.61584e-07 0)
(-0.00894646 5.70589e-07 0)
(-0.00894615 5.81404e-07 0)
(-0.00894408 5.77873e-07 0)
(-0.00894361 5.52142e-07 0)
(-0.00894296 5.37773e-07 0)
(-0.00894169 5.27509e-07 0)
(-0.0089404 4.96808e-07 0)
(-0.00893935 4.81056e-07 0)
(-0.00893739 5.06044e-07 0)
(-0.00893615 5.19783e-07 0)
(-0.00893495 5.35278e-07 0)
(-0.00893379 5.5042e-07 0)
(-0.00893371 5.48436e-07 0)
(-0.00893344 5.45741e-07 0)
(-0.00893284 5.23384e-07 0)
(-0.00893178 5.24321e-07 0)
(-0.00893045 5.07104e-07 0)
(-0.00892902 4.78745e-07 0)
(-0.00892786 4.74455e-07 0)
(-0.00892585 4.81003e-07 0)
(-0.00892461 4.8424e-07 0)
(-0.0089234 4.88298e-07 0)
(-0.00892362 5.19802e-07 0)
(-0.00892171 5.27584e-07 0)
(-0.0089216 5.12086e-07 0)
(-0.00892112 5.0684e-07 0)
(-0.00892022 5.10011e-07 0)
(-0.00891897 5.05689e-07 0)
(-0.00891768 5.11564e-07 0)
(-0.00891658 5.22571e-07 0)
(-0.00891459 5.4663e-07 0)
(-0.00891333 5.5994e-07 0)
(-0.00891346 6.24861e-07 0)
(-0.00891099 6.08257e-07 0)
)
;
    }
    fixedWalls-top
    {
        type            calculated;
        value           nonuniform List<vector> 
600
(
(-0.0178151 -6.10891e-05 0)
(-0.0179194 -0.00011198 0)
(-0.0179789 -0.000146183 0)
(-0.0179878 -0.000166933 0)
(-0.0179655 -0.00017833 0)
(-0.0179163 -0.000183756 0)
(-0.0178537 -0.000185394 0)
(-0.0177702 -0.000184257 0)
(-0.0176811 -0.000181242 0)
(-0.0175747 -0.000176837 0)
(-0.0174661 -0.000171691 0)
(-0.0173535 -0.000166053 0)
(-0.0172347 -0.000160136 0)
(-0.0171131 -0.000154064 0)
(-0.0169899 -0.000147998 0)
(-0.0168657 -0.000142028 0)
(-0.0167413 -0.000136158 0)
(-0.0166175 -0.000130488 0)
(-0.0164944 -0.000125009 0)
(-0.0163727 -0.000119734 0)
(-0.0162524 -0.000114705 0)
(-0.016134 -0.000109873 0)
(-0.0160177 -0.000105254 0)
(-0.0159036 -0.000100878 0)
(-0.0157917 -9.67057e-05 0)
(-0.0156822 -9.27149e-05 0)
(-0.0155752 -8.89306e-05 0)
(-0.0154707 -8.53452e-05 0)
(-0.0153686 -8.19347e-05 0)
(-0.015269 -7.86749e-05 0)
(-0.0151719 -7.55904e-05 0)
(-0.0150773 -7.26732e-05 0)
(-0.014985 -6.98839e-05 0)
(-0.0148952 -6.72315e-05 0)
(-0.0148076 -6.4725e-05 0)
(-0.0147224 -6.23265e-05 0)
(-0.0146394 -6.00457e-05 0)
(-0.0145585 -5.78769e-05 0)
(-0.0144798 -5.58149e-05 0)
(-0.0144031 -5.38543e-05 0)
(-0.0143285 -5.1975e-05 0)
(-0.0142558 -5.01879e-05 0)
(-0.014185 -4.85043e-05 0)
(-0.014116 -4.68889e-05 0)
(-0.0140488 -4.53382e-05 0)
(-0.0139833 -4.38643e-05 0)
(-0.0139195 -4.24634e-05 0)
(-0.0138572 -4.11325e-05 0)
(-0.0137965 -3.98379e-05 0)
(-0.0137374 -3.86231e-05 0)
(-0.0136796 -3.74696e-05 0)
(-0.0136232 -3.63446e-05 0)
(-0.0135683 -3.52764e-05 0)
(-0.0135146 -3.42628e-05 0)
(-0.0134621 -3.32862e-05 0)
(-0.0134109 -3.23602e-05 0)
(-0.0133609 -3.14675e-05 0)
(-0.013312 -3.06064e-05 0)
(-0.0132642 -2.97905e-05 0)
(-0.0132175 -2.90182e-05 0)
(-0.0131717 -2.82727e-05 0)
(-0.013127 -2.75379e-05 0)
(-0.0130832 -2.68425e-05 0)
(-0.0130404 -2.61999e-05 0)
(-0.0129984 -2.55643e-05 0)
(-0.0129573 -2.49347e-05 0)
(-0.0129171 -2.43546e-05 0)
(-0.0128776 -2.3808e-05 0)
(-0.0128389 -2.32645e-05 0)
(-0.0128009 -2.27379e-05 0)
(-0.0127637 -2.22275e-05 0)
(-0.0127273 -2.17471e-05 0)
(-0.0126915 -2.1296e-05 0)
(-0.0126563 -2.08589e-05 0)
(-0.0126218 -2.04202e-05 0)
(-0.0125879 -2.00087e-05 0)
(-0.0125546 -1.96093e-05 0)
(-0.012522 -1.92213e-05 0)
(-0.0124898 -1.88588e-05 0)
(-0.0124582 -1.84921e-05 0)
(-0.0124271 -1.815e-05 0)
(-0.0123966 -1.78176e-05 0)
(-0.0123665 -1.74943e-05 0)
(-0.012337 -1.71946e-05 0)
(-0.0123078 -1.68892e-05 0)
(-0.0122793 -1.65924e-05 0)
(-0.0122511 -1.63337e-05 0)
(-0.0122233 -1.607e-05 0)
(-0.0121959 -1.58171e-05 0)
(-0.0121689 -1.55781e-05 0)
(-0.0121424 -1.53732e-05 0)
(-0.0121161 -1.52154e-05 0)
(-0.0120902 -1.50979e-05 0)
(-0.0120645 -1.50264e-05 0)
(-0.0120391 -1.49587e-05 0)
(-0.012014 -1.49148e-05 0)
(-0.011989 -1.48754e-05 0)
(-0.0119643 -1.48378e-05 0)
(-0.0119397 -1.47998e-05 0)
(-0.0119153 -1.47456e-05 0)
(-0.0118912 -1.47029e-05 0)
(-0.0118673 -1.46568e-05 0)
(-0.0118435 -1.46212e-05 0)
(-0.0118198 -1.45673e-05 0)
(-0.0117964 -1.4495e-05 0)
(-0.0117731 -1.4433e-05 0)
(-0.01175 -1.43671e-05 0)
(-0.0117271 -1.42831e-05 0)
(-0.0117044 -1.42097e-05 0)
(-0.0116818 -1.4147e-05 0)
(-0.0116594 -1.40525e-05 0)
(-0.0116372 -1.39692e-05 0)
(-0.0116151 -1.3883e-05 0)
(-0.0115932 -1.37798e-05 0)
(-0.0115715 -1.36884e-05 0)
(-0.01155 -1.35947e-05 0)
(-0.0115286 -1.34989e-05 0)
(-0.0115074 -1.33869e-05 0)
(-0.0114864 -1.32874e-05 0)
(-0.0114655 -1.31864e-05 0)
(-0.0114448 -1.30698e-05 0)
(-0.0114243 -1.29803e-05 0)
(-0.0114039 -1.28756e-05 0)
(-0.0113837 -1.27417e-05 0)
(-0.0113638 -1.26353e-05 0)
(-0.0113439 -1.25424e-05 0)
(-0.0113242 -1.24207e-05 0)
(-0.0113047 -1.23128e-05 0)
(-0.0112853 -1.22046e-05 0)
(-0.0112662 -1.20822e-05 0)
(-0.0112472 -1.19738e-05 0)
(-0.0112283 -1.18654e-05 0)
(-0.0112096 -1.17571e-05 0)
(-0.0111911 -1.1649e-05 0)
(-0.0111727 -1.15411e-05 0)
(-0.0111545 -1.14195e-05 0)
(-0.0111365 -1.13122e-05 0)
(-0.0111185 -1.12192e-05 0)
(-0.0111008 -1.10986e-05 0)
(-0.0110832 -1.09924e-05 0)
(-0.0110657 -1.08864e-05 0)
(-0.0110485 -1.07808e-05 0)
(-0.0110313 -1.06754e-05 0)
(-0.0110144 -1.05703e-05 0)
(-0.0109975 -1.04654e-05 0)
(-0.0109808 -1.03606e-05 0)
(-0.0109642 -1.02561e-05 0)
(-0.0109479 -1.01516e-05 0)
(-0.0109316 -1.00473e-05 0)
(-0.0109155 -9.94302e-06 0)
(-0.0108995 -9.83874e-06 0)
(-0.0108838 -9.73441e-06 0)
(-0.0108681 -9.62998e-06 0)
(-0.0108526 -9.5254e-06 0)
(-0.0108372 -9.42061e-06 0)
(-0.0108221 -9.31558e-06 0)
(-0.0108069 -9.2103e-06 0)
(-0.0107921 -9.10477e-06 0)
(-0.0107773 -8.99898e-06 0)
(-0.0107627 -8.89294e-06 0)
(-0.0107482 -8.80046e-06 0)
(-0.0107339 -8.6802e-06 0)
(-0.0107197 -8.57361e-06 0)
(-0.0107057 -8.46699e-06 0)
(-0.0106919 -8.36046e-06 0)
(-0.0106781 -8.25415e-06 0)
(-0.0106646 -8.14816e-06 0)
(-0.0106512 -8.0426e-06 0)
(-0.010638 -7.93762e-06 0)
(-0.0106248 -7.84712e-06 0)
(-0.0106118 -7.7301e-06 0)
(-0.010599 -7.62787e-06 0)
(-0.0105863 -7.5268e-06 0)
(-0.0105738 -7.42704e-06 0)
(-0.0105614 -7.34237e-06 0)
(-0.0105491 -7.24545e-06 0)
(-0.0105369 -7.15004e-06 0)
(-0.0105249 -7.05632e-06 0)
(-0.010513 -6.97788e-06 0)
(-0.0105012 -6.88705e-06 0)
(-0.0104896 -6.79787e-06 0)
(-0.010478 -6.72334e-06 0)
(-0.0104666 -6.63476e-06 0)
(-0.0104553 -6.54704e-06 0)
(-0.0104441 -6.46157e-06 0)
(-0.0104331 -6.39118e-06 0)
(-0.0104221 -6.32087e-06 0)
(-0.0104112 -6.23623e-06 0)
(-0.0104004 -6.15355e-06 0)
(-0.0103898 -6.08789e-06 0)
(-0.0103793 -6.00854e-06 0)
(-0.0103689 -5.92804e-06 0)
(-0.0103586 -5.87478e-06 0)
(-0.0103483 -5.79461e-06 0)
(-0.0103383 -5.71632e-06 0)
(-0.0103283 -5.66741e-06 0)
(-0.0103183 -5.59303e-06 0)
(-0.0103085 -5.51902e-06 0)
(-0.0102988 -5.45776e-06 0)
(-0.0102892 -5.383e-06 0)
(-0.0102797 -5.32162e-06 0)
(-0.0102703 -5.26109e-06 0)
(-0.010261 -5.18741e-06 0)
(-0.0102518 -5.12666e-06 0)
(-0.0102426 -5.06753e-06 0)
(-0.0102336 -4.99644e-06 0)
(-0.0102247 -4.94107e-06 0)
(-0.0102158 -4.89047e-06 0)
(-0.0102071 -4.8284e-06 0)
(-0.0101984 -4.77717e-06 0)
(-0.0101898 -4.72418e-06 0)
(-0.0101814 -4.67268e-06 0)
(-0.0101729 -4.62294e-06 0)
(-0.0101646 -4.55981e-06 0)
(-0.0101563 -4.50972e-06 0)
(-0.0101481 -4.47533e-06 0)
(-0.01014 -4.41808e-06 0)
(-0.010132 -4.37658e-06 0)
(-0.010124 -4.34992e-06 0)
(-0.010116 -4.29497e-06 0)
(-0.0101082 -4.25117e-06 0)
(-0.0101004 -4.20938e-06 0)
(-0.0100927 -4.17216e-06 0)
(-0.0100851 -4.15081e-06 0)
(-0.0100774 -4.11477e-06 0)
(-0.0100699 -4.06359e-06 0)
(-0.0100625 -4.0259e-06 0)
(-0.010055 -4.00316e-06 0)
(-0.0100477 -3.96828e-06 0)
(-0.0100404 -3.93386e-06 0)
(-0.0100331 -3.91396e-06 0)
(-0.0100258 -3.88334e-06 0)
(-0.0100187 -3.8543e-06 0)
(-0.0100116 -3.8249e-06 0)
(-0.0100045 -3.79469e-06 0)
(-0.00999753 -3.77658e-06 0)
(-0.00999054 -3.7447e-06 0)
(-0.00998365 -3.71369e-06 0)
(-0.00997677 -3.68363e-06 0)
(-0.00997 -3.66657e-06 0)
(-0.00996316 -3.63563e-06 0)
(-0.0099565 -3.60637e-06 0)
(-0.00994977 -3.59281e-06 0)
(-0.00994315 -3.56626e-06 0)
(-0.00993654 -3.55182e-06 0)
(-0.00992994 -3.52395e-06 0)
(-0.00992344 -3.49824e-06 0)
(-0.00991697 -3.4871e-06 0)
(-0.0099105 -3.47406e-06 0)
(-0.00990405 -3.44638e-06 0)
(-0.0098977 -3.41986e-06 0)
(-0.00989136 -3.40726e-06 0)
(-0.00988504 -3.38047e-06 0)
(-0.00987882 -3.3536e-06 0)
(-0.00987261 -3.34106e-06 0)
(-0.00986641 -3.31553e-06 0)
(-0.00986031 -3.30252e-06 0)
(-0.00985414 -3.28947e-06 0)
(-0.00984807 -3.26418e-06 0)
(-0.00984201 -3.23882e-06 0)
(-0.00983604 -3.2132e-06 0)
(-0.00983009 -3.20138e-06 0)
(-0.00982415 -3.19004e-06 0)
(-0.00981822 -3.17866e-06 0)
(-0.00981231 -3.15363e-06 0)
(-0.00980649 -3.12908e-06 0)
(-0.00980068 -3.11851e-06 0)
(-0.00979488 -3.09473e-06 0)
(-0.00978918 -3.08411e-06 0)
(-0.00978341 -3.07389e-06 0)
(-0.00977773 -3.05093e-06 0)
(-0.00977206 -3.0415e-06 0)
(-0.0097664 -3.01935e-06 0)
(-0.00976083 -3.01051e-06 0)
(-0.00975519 -3.00167e-06 0)
(-0.00974965 -2.97994e-06 0)
(-0.00974411 -2.97135e-06 0)
(-0.00973858 -2.94976e-06 0)
(-0.00973315 -2.94113e-06 0)
(-0.00972764 -2.93184e-06 0)
(-0.00972223 -2.90922e-06 0)
(-0.00971684 -2.89944e-06 0)
(-0.00971144 -2.87596e-06 0)
(-0.00970615 -2.86562e-06 0)
(-0.00970078 -2.85524e-06 0)
(-0.00969551 -2.83155e-06 0)
(-0.00969025 -2.82106e-06 0)
(-0.009685 -2.79727e-06 0)
(-0.00967984 -2.78673e-06 0)
(-0.00967462 -2.77618e-06 0)
(-0.00966949 -2.75235e-06 0)
(-0.00966436 -2.74165e-06 0)
(-0.00965926 -2.73084e-06 0)
(-0.00965416 -2.70671e-06 0)
(-0.00964916 -2.6826e-06 0)
(-0.00964417 -2.67179e-06 0)
(-0.00963919 -2.66102e-06 0)
(-0.00963423 -2.65016e-06 0)
(-0.00962928 -2.63922e-06 0)
(-0.00962434 -2.61521e-06 0)
(-0.00961949 -2.59148e-06 0)
(-0.00961465 -2.58104e-06 0)
(-0.00960983 -2.57089e-06 0)
(-0.00960501 -2.54814e-06 0)
(-0.00960028 -2.5389e-06 0)
(-0.00959548 -2.52976e-06 0)
(-0.00959078 -2.50757e-06 0)
(-0.00958608 -2.49882e-06 0)
(-0.0095814 -2.47714e-06 0)
(-0.0095768 -2.46886e-06 0)
(-0.00957212 -2.4608e-06 0)
(-0.00956754 -2.45304e-06 0)
(-0.00956289 -2.44553e-06 0)
(-0.00955832 -2.42509e-06 0)
(-0.00955377 -2.40485e-06 0)
(-0.00954929 -2.39783e-06 0)
(-0.00954476 -2.39085e-06 0)
(-0.0095403 -2.3841e-06 0)
(-0.00953578 -2.37763e-06 0)
(-0.00953133 -2.35826e-06 0)
(-0.00952691 -2.35225e-06 0)
(-0.00952248 -2.34622e-06 0)
(-0.00951808 -2.32684e-06 0)
(-0.00951374 -2.32046e-06 0)
(-0.00950934 -2.31411e-06 0)
(-0.00950503 -2.29481e-06 0)
(-0.00950073 -2.28872e-06 0)
(-0.00949642 -2.28255e-06 0)
(-0.00949214 -2.27626e-06 0)
(-0.00948785 -2.26998e-06 0)
(-0.00948358 -2.25057e-06 0)
(-0.00947939 -2.2442e-06 0)
(-0.00947514 -2.23761e-06 0)
(-0.00947096 -2.21772e-06 0)
(-0.0094668 -2.21095e-06 0)
(-0.00946263 -2.20419e-06 0)
(-0.00945849 -2.1842e-06 0)
(-0.00945443 -2.17708e-06 0)
(-0.0094503 -2.16964e-06 0)
(-0.00944625 -2.16195e-06 0)
(-0.00944214 -2.15406e-06 0)
(-0.00943811 -2.13295e-06 0)
(-0.0094341 -2.12489e-06 0)
(-0.00943009 -2.10359e-06 0)
(-0.00942618 -2.09535e-06 0)
(-0.0094222 -2.08709e-06 0)
(-0.00941831 -2.07895e-06 0)
(-0.00941434 -2.07093e-06 0)
(-0.00941047 -2.05005e-06 0)
(-0.0094066 -2.02938e-06 0)
(-0.00940282 -2.02188e-06 0)
(-0.00939897 -2.02779e-06 0)
(-0.00939512 -2.00811e-06 0)
(-0.00939137 -1.98878e-06 0)
(-0.00938761 -1.9958e-06 0)
(-0.0093838 -1.98961e-06 0)
(-0.00938004 -1.95696e-06 0)
(-0.0093764 -1.95011e-06 0)
(-0.00937267 -1.95617e-06 0)
(-0.00936895 -1.93613e-06 0)
(-0.00936533 -1.92899e-06 0)
(-0.00936162 -1.92143e-06 0)
(-0.00935801 -1.90051e-06 0)
(-0.00935441 -1.89298e-06 0)
(-0.00935082 -1.88527e-06 0)
(-0.00934724 -1.87725e-06 0)
(-0.00934367 -1.85693e-06 0)
(-0.0093402 -1.85127e-06 0)
(-0.00933663 -1.84687e-06 0)
(-0.00933318 -1.82914e-06 0)
(-0.0093297 -1.82373e-06 0)
(-0.00932628 -1.8161e-06 0)
(-0.00932283 -1.80647e-06 0)
(-0.00931944 -1.78287e-06 0)
(-0.0093161 -1.77141e-06 0)
(-0.00931272 -1.7629e-06 0)
(-0.00930943 -1.74277e-06 0)
(-0.00930611 -1.7311e-06 0)
(-0.00930285 -1.70276e-06 0)
(-0.00929967 -1.6877e-06 0)
(-0.00929642 -1.67389e-06 0)
(-0.00929329 -1.64746e-06 0)
(-0.0092901 -1.61819e-06 0)
(-0.0092871 -1.59602e-06 0)
(-0.00928396 -1.55702e-06 0)
(-0.00928098 -1.52189e-06 0)
(-0.00927802 -1.51486e-06 0)
(-0.00927491 -1.485e-06 0)
(-0.00927204 -1.46265e-06 0)
(-0.00926905 -1.45697e-06 0)
(-0.00926601 -1.45596e-06 0)
(-0.00926315 -1.45376e-06 0)
(-0.00926 -1.45105e-06 0)
(-0.00925703 -1.44924e-06 0)
(-0.00925406 -1.42953e-06 0)
(-0.00925087 -1.4284e-06 0)
(-0.00924808 -1.43877e-06 0)
(-0.00924474 -1.41644e-06 0)
(-0.00924171 -1.39238e-06 0)
(-0.00923883 -1.36679e-06 0)
(-0.00923521 -1.34572e-06 0)
(-0.00923245 -1.33165e-06 0)
(-0.00922894 -1.3387e-06 0)
(-0.00922635 -1.34149e-06 0)
(-0.00922507 -1.32156e-06 0)
(-0.00922322 -1.31247e-06 0)
(-0.00922087 -1.30483e-06 0)
(-0.00921845 -1.29892e-06 0)
(-0.0092158 -1.28465e-06 0)
(-0.00921325 -1.28733e-06 0)
(-0.00921053 -1.28671e-06 0)
(-0.00920788 -1.28134e-06 0)
(-0.00920514 -1.27132e-06 0)
(-0.00920239 -1.24801e-06 0)
(-0.00919973 -1.23462e-06 0)
(-0.00919696 -1.21443e-06 0)
(-0.00919424 -1.19925e-06 0)
(-0.00919139 -1.18111e-06 0)
(-0.00918901 -1.15698e-06 0)
(-0.00918614 -1.16307e-06 0)
(-0.00918371 -1.17316e-06 0)
(-0.0091804 -1.18092e-06 0)
(-0.00917938 -1.2145e-06 0)
(-0.00917606 -1.21661e-06 0)
(-0.0091749 -1.18055e-06 0)
(-0.00917339 -1.16392e-06 0)
(-0.00917122 -1.14511e-06 0)
(-0.00916906 -1.11488e-06 0)
(-0.00916672 -1.09933e-06 0)
(-0.00916439 -1.08669e-06 0)
(-0.00916187 -1.07993e-06 0)
(-0.00915949 -1.07837e-06 0)
(-0.00915703 -1.0808e-06 0)
(-0.00915458 -1.09004e-06 0)
(-0.00915216 -1.06702e-06 0)
(-0.00914962 -1.04392e-06 0)
(-0.00914693 -1.03114e-06 0)
(-0.0091448 -1.00784e-06 0)
(-0.00914169 -1.01603e-06 0)
(-0.00914076 -1.03002e-06 0)