/*--------------------------------*- C++ -*----------------------------------*\
  =========                 |
  \\      /  F ield         | OpenFOAM: The Open Source CFD Toolbox
   \\    /   O peration     | Website:  https://openfoam.org
    \\  /    A nd           | Version:  7
     \\/     M anipulation  |
\*---------------------------------------------------------------------------*/
FoamFile
{
    version     2.0;
    format      ascii;
    class       volScalarField;
    location    "167";
    object      yPlus;
}
// * * * * * * * * * * * * * * * * * * * * * * * * * * * * * * * * * * * * * //

dimensions      [0 0 0 0 0 0 0];

internalField   uniform 0;

boundaryField
{
    inlet
    {
        type            calculated;
        value           uniform 0;
    }
    outlet
    {
        type            calculated;
        value           uniform 0;
    }
    fixedWalls-bottom
    {
        type            calculated;
        value           nonuniform List<scalar> 
600
(
20.8435
21.1
21.3124
21.4782
21.6107
21.7047
21.7776
21.8181
21.8477
21.8476
21.8403
21.8223
21.7903
21.7494
21.7011
21.6468
21.5876
21.5245
21.4584
21.3899
21.3197
21.2482
21.1761
21.1037
21.0311
20.9589
20.8871
20.816
20.7458
20.6764
20.6081
20.541
20.4751
20.4104
20.3469
20.2848
20.224
20.1646
20.1064
20.0496
19.994
19.9398
19.8868
19.8351
19.7845
19.7352
19.6871
19.64
19.5941
19.5493
19.5055
19.4628
19.421
19.3802
19.3403
19.3014
19.2633
19.226
19.1896
19.154
19.1192
19.0851
19.0518
19.0191
18.9871
18.9558
18.9251
18.895
18.8656
18.8367
18.8083
18.7805
18.7532
18.7265
18.7002
18.6744
18.649
18.6241
18.5997
18.5756
18.552
18.5287
18.5058
18.4833
18.4612
18.4394
18.4179
18.3968
18.376
18.3555
18.3353
18.3153
18.2957
18.2763
18.2571
18.2382
18.2195
18.2009
18.1826
18.1643
18.1463
18.1283
18.1105
18.0929
18.0753
18.0579
18.0406
18.0234
18.0063
17.9893
17.9724
17.9556
17.939
17.9224
17.906
17.8897
17.8735
17.8574
17.8414
17.8255
17.8097
17.794
17.7785
17.763
17.7477
17.7325
17.7173
17.7024
17.6875
17.6727
17.658
17.6435
17.629
17.6147
17.6005
17.5864
17.5724
17.5584
17.5447
17.531
17.5174
17.5039
17.4905
17.4773
17.4641
17.4511
17.4381
17.4253
17.4126
17.3999
17.3874
17.375
17.3627
17.3505
17.3384
17.3264
17.3145
17.3027
17.2911
17.2795
17.268
17.2567
17.2455
17.2343
17.2233
17.2124
17.2016
17.1909
17.1804
17.1699
17.1596
17.1493
17.1392
17.1291
17.1192
17.1094
17.0997
17.0901
17.0806
17.0712
17.0619
17.0527
17.0435
17.0345
17.0255
17.0167
17.0079
16.9992
16.9905
16.982
16.9735
16.9651
16.9568
16.9486
16.9405
16.9324
16.9244
16.9165
16.9086
16.9009
16.8931
16.8855
16.878
16.8705
16.8631
16.8557
16.8484
16.8412
16.834
16.8269
16.8199
16.8129
16.806
16.7992
16.7924
16.7856
16.779
16.7724
16.7659
16.7594
16.753
16.7466
16.7403
16.734
16.7278
16.7216
16.7155
16.7095
16.7034
16.6974
16.6915
16.6856
16.6797
16.6739
16.6681
16.6624
16.6567
16.651
16.6454
16.6398
16.6342
16.6287
16.6232
16.6177
16.6123
16.6069
16.6015
16.5962
16.5909
16.5856
16.5804
16.5751
16.5699
16.5648
16.5596
16.5545
16.5494
16.5444
16.5393
16.5343
16.5293
16.5243
16.5194
16.5144
16.5095
16.5046
16.4998
16.4949
16.4901
16.4852
16.4805
16.4757
16.471
16.4662
16.4615
16.4569
16.4522
16.4475
16.4429
16.4383
16.4337
16.4292
16.4246
16.4201
16.4156
16.4112
16.4067
16.4023
16.3978
16.3935
16.389
16.3847
16.3803
16.376
16.3717
16.3674
16.3631
16.3589
16.3546
16.3505
16.3463
16.3421
16.338
16.334
16.3299
16.3259
16.3219
16.318
16.314
16.3102
16.3063
16.3026
16.2987
16.295
16.2914
16.2877
16.284
16.2805
16.2768
16.2732
16.2696
16.266
16.2624
16.2589
16.2553
16.2518
16.2482
16.2447
16.2413
16.2378
16.2343
16.2309
16.2275
16.2241
16.2207
16.2173
16.214
16.2107
16.2074
16.2041
16.2009
16.1976
16.1944
16.1913
16.1881
16.1849
16.1818
16.1787
16.1756
16.1725
16.1694
16.1663
16.1633
16.1602
16.1572
16.1541
16.1511
16.1481
16.1451
16.1422
16.1392
16.1363
16.1333
16.1304
16.1275
16.1246
16.1217
16.1188
16.116
16.1131
16.1104
16.1076
16.1049
16.1022
16.0995
16.0968
16.0941
16.0915
16.0888
16.0861
16.0835
16.0808
16.0783
16.0755
16.0731
16.0704
16.0681
16.0653
16.063
16.0605
16.0579
16.0557
16.053
16.0509
16.0484
16.0459
16.0437
16.041
16.0389
16.0362
16.0337
16.0308
16.0284
16.0263
16.0232
16.0189
16.0168
16.016
16.0162
16.0153
16.0137
16.0118
16.0096
16.0076
16.0052
16.0032
16.0008
15.9989
15.9965
15.9947
15.9922
15.9904
15.988
15.9862
15.9837
15.9816
15.9791
15.9769
15.9741
15.9723
15.9694
15.9674
15.9643
15.9624
15.9584
15.9567
15.9548
15.9561
15.9526
15.9524
15.9533
15.9531
15.9517
15.9503
15.9484
15.9466
15.9448
15.9425
15.941
15.9387
15.9365
15.9343
15.9325
15.9302
15.9286
15.9259
15.9245
15.9209
15.9194
15.9178
15.92
15.9167
15.9185
15.9192
15.9186
15.9175
15.9161
15.9147
15.9132
15.9116
15.9103
15.9085
15.9072
15.9054
15.904
15.9021
15.9002
15.8982
15.8964
15.8943
15.8929
15.8902
15.8888
15.8854
15.8839
15.883
15.8839
15.8838
15.8823
15.8808
15.8783
15.8767
15.8732
15.8716
15.87
15.8718
15.8686
15.8697
15.8701
15.8688
15.8677
15.8654
15.8639
15.8613
15.8598
15.8566
15.8552
15.8537
15.8562
15.8531
15.8542
15.8553
15.8548
15.854
15.8524
15.8512
15.8493
15.8477
15.8457
15.8433
15.8425
15.8402
15.839
15.838
15.8348
15.8335
15.832
15.835
15.832
15.8341
15.8351
15.8346
15.8335
15.8318
15.8304
15.8289
15.826
15.8237
15.8225
15.8192
15.8176
15.816
15.8147
15.8133
15.8121
15.8129
15.8101
15.8114
15.8089
15.8095
15.8098
15.8086
15.8075
15.8067
15.8038
15.8025
15.8035
15.8007
15.8028
15.8002
15.8007
15.8017
15.801
15.8006
15.7969
15.7951
15.7933
15.7941
15.7911
15.7916
15.7915
15.7903
15.7889
15.788
15.785
15.7838
15.7825
15.7815
15.7827
15.7836
15.7837
15.7827
15.7813
15.7795
15.7783
15.7752
15.7738
15.7725
15.7743
15.7717
15.7728
15.7731
15.7725
15.7711
15.7696
15.7687
15.7656
15.7644
15.7658
15.7628
)
;
    }
    fixedWalls-top
    {
        type            calculated;
        value           nonuniform List<scalar> 
600
(
20.8435
21.1
21.3124
21.4782
21.6107
21.7047
21.7776
21.8181
21.8477
21.8476
21.8403
21.8223
21.7903
21.7494
21.7011
21.6468
21.5876
21.5245
21.4584
21.3899
21.3197
21.2482
21.1761
21.1037
21.0311
20.9589
20.8871
20.816
20.7458
20.6764
20.6081
20.541
20.4751
20.4104
20.3469
20.2848
20.224
20.1646
20.1064
20.0496
19.994
19.9398
19.8868
19.8351
19.7845
19.7352
19.6871
19.64
19.5941
19.5493
19.5055
19.4628
19.421
19.3802
19.3403
19.3014
19.2633
19.226
19.1896
19.154
19.1192
19.0851
19.0518
19.0191
18.9871
18.9558
18.9251
18.895
18.8656
18.8367
18.8083
18.7805
18.7532
18.7265
18.7002
18.6744
18.649
18.6241
18.5997
18.5756
18.552
18.5287
18.5058
18.4833
18.4612
18.4394
18.4179
18.3968
18.376
18.3555
18.3353
18.3153
18.2957
18.2763
18.2571
18.2382
18.2195
18.2009
18.1826
18.1643
18.1463
18.1283
18.1105
18.0929
18.0753
18.0579
18.0406
18.0234
18.0063
17.9893
17.9724
17.9556
17.939
17.9224
17.906
17.8897
17.8735
17.8574
17.8414
17.8254
17.8097
17.794
17.7785
17.763
17.7477
17.7325
17.7173
17.7023
17.6874
17.6727
17.658
17.6434
17.629
17.6146
17.6004
17.5863
17.5723
17.5583
17.5445
17.5308
17.5172
17.5037
17.4903
17.4771
17.4639
17.4508
17.4378
17.425
17.4122
17.3995
17.387
17.3746
17.3622
17.35
17.3379
17.3259
17.3141
17.3023
17.2907
17.2791
17.2677
17.2564
17.2452
17.2342
17.2232
17.2124
17.2017
17.1911
17.1807
17.1703
17.1601
17.15
17.1399
17.13
17.1202
17.1105
17.1009
17.0914
17.082
17.0727
17.0635
17.0543
17.0453
17.0363
17.0275
17.0187
17.01
17.0013
16.9928
16.9844
16.976
16.9677
16.9595
16.9514
16.9434
16.9354
16.9276
16.9198
16.9121
16.9044
16.8969
16.8894
16.882
16.8747
16.8674
16.8602
16.8531
16.8461
16.8391
16.8322
16.8254
16.8186
16.8119
16.8052
16.7986
16.7921
16.7856
16.7792
16.7728
16.7665
16.7602
16.7539
16.7477
16.7416
16.7355
16.7294
16.7234
16.7174
16.7114
16.7055
16.6997
16.6938
16.688
16.6823
16.6765
16.6708
16.6652
16.6596
16.654
16.6484
16.6429
16.6374
16.6319
16.6265
16.6211
16.6157
16.6104
16.6051
16.5998
16.5945
16.5893
16.5841
16.579
16.5738
16.5687
16.5636
16.5586
16.5535
16.5485
16.5436
16.5386
16.5337
16.5288
16.5239
16.519
16.5142
16.5094
16.5046
16.4998
16.4951
16.4904
16.4857
16.481
16.4763
16.4717
16.467
16.4625
16.4579
16.4533
16.4488
16.4442
16.4397
16.4353
16.4308
16.4264
16.4219
16.4175
16.4132
16.4088
16.4045
16.4002
16.396
16.3917
16.3875
16.3833
16.3791
16.375
16.3708
16.3667
16.3626
16.3586
16.3546
16.3505
16.3465
16.3426
16.3386
16.3347
16.3307
16.3269
16.323
16.3191
16.3153
16.3114
16.3076
16.3038
16.3
16.2962
16.2925
16.2887
16.285
16.2813
16.2776
16.2739
16.2702
16.2666
16.2629
16.2593
16.2557
16.2521
16.2485
16.2449
16.2414
16.2378
16.2343
16.2308
16.2273
16.2238
16.2204
16.2169
16.2135
16.2101
16.2067
16.2033
16.1999
16.1966
16.1933
16.19
16.1867
16.1835
16.1803
16.1771
16.1739
16.1707
16.1675
16.1643
16.1612
16.158
16.1549
16.1518
16.1487
16.1456
16.1425
16.1395
16.1365
16.1335
16.1305
16.1275
16.1246
16.1216
16.1188
16.1159
16.113
16.1102
16.1074
16.1046
16.1019
16.0992
16.0964
16.0938
16.0911
16.0885
16.086
16.0833
16.0809
16.0783
16.0758
16.0734
16.0708
16.0684
16.0659
16.0632
16.0609
16.0579
16.0554
16.0529
16.0497
16.0475
16.0442
16.0414
16.0389
16.0347
16.0324
16.0284
16.0265
16.0273
16.0268
16.0253
16.0236
16.0214
16.0192
16.0169
16.0145
16.0121
16.0096
16.0072
16.0045
16.002
15.9992
15.9972
15.9942
15.9923
15.9884
15.9893
15.9855
15.9862
15.986
15.9845
15.9828
15.9808
15.9788
15.9763
15.9742
15.9719
15.9696
15.9674
15.9647
15.9619
15.9602
15.9562
15.9571
15.9534
15.9543
15.9542
15.9524
15.9512
15.9487
15.9468
15.9439
15.9416
15.9393
15.9382
15.9345
15.9359
15.9325
15.9334
15.9333
15.9321
15.9303
15.9285
15.9268
15.9242
15.9214
15.9196
15.9174
15.9136
15.9119
15.9113
15.9117
15.9114
15.9099
15.9081
15.9063
15.9044
15.9027
15.9007
15.8969
15.8952
15.8937
15.8923
15.8938
15.8941
15.8928
15.8917
15.8898
15.8879
15.8859
15.8842
15.8826
15.879
15.8799
15.8768
15.8778
15.8779
15.8767
15.8756
15.8734
15.8715
15.8696
15.8686
15.8654
15.8666
15.8636
15.8643
15.864
15.8627
15.8614
15.8593
15.8573
15.8562
15.8529
15.8522
15.8506
15.8518
15.852
15.8512
15.8498
15.848
15.8465
15.8437
15.842
15.8402
15.8397
15.8379
15.8387
15.8395
15.839
15.8378
15.8365
15.8352
15.833
15.8318
15.8285
15.827
15.8255
15.8275
15.8246
15.8257
15.8264
15.8261
15.825
15.8237
15.8215
15.8191
15.8185
15.8158
15.815
15.8144
15.8114
15.8102
15.8089
15.8077
15.8114
15.8086
15.8109
15.8117
15.8114
15.8104
15.8094
15.8083
15.8071
15.8059
15.8045
15.8031
15.8014
15.8002
15.7986
15.7965
15.7955
15.7922
15.7908
15.7912
15.7902
15.7898
15.787
15.7858
15.7846
15.7869
15.7843
15.786
15.7867
15.7865
15.7857
15.785
15.784
15.7825
15.7812
15.7797
15.7781
15.7766
15.775
15.7737
15.7725
15.7718
15.7706
15.7701
15.7676
15.7665
15.7653
15.7645
15.7634
)
;
    }
    frontAndBack
    {
        type            empty;
    }
}


// ************************************************************************* //
