# Residuals   
# Time        	p             	Ux            	Uy            	k             	omega         
1             	1.000000e+00	1.000000e+00	1.000000e+00	1.000000e+00	1.374626e-03
2             	2.352572e-01	1.455584e-02	3.008764e-01	2.251416e-01	2.923207e-03
3             	8.285688e-02	7.036955e-03	1.398725e-01	6.131886e-02	2.234582e-03
4             	8.366908e-02	5.099317e-03	5.755056e-02	2.015197e-02	1.308406e-03
5             	7.229916e-02	3.808933e-03	3.547745e-02	7.383774e-03	1.063809e-03
6             	7.791729e-02	3.135329e-03	2.308424e-02	3.441756e-03	7.885399e-04
7             	8.928027e-02	2.736027e-03	1.913956e-02	2.774073e-03	5.842012e-04
8             	9.778357e-02	2.628557e-03	1.628972e-02	2.176675e-03	4.321041e-04
9             	9.690635e-02	2.714747e-03	1.446674e-02	1.800975e-03	3.456857e-04
10            	7.818189e-02	2.725544e-03	1.281790e-02	1.379753e-03	2.962606e-04
11            	6.343728e-02	2.811795e-03	1.211441e-02	1.086359e-03	2.697738e-04
12            	5.620124e-02	2.784369e-03	1.144202e-02	9.329034e-04	2.876164e-04
13            	5.472394e-02	2.914171e-03	1.107078e-02	7.937581e-04	2.743378e-04
14            	6.041323e-02	2.960725e-03	1.078376e-02	7.166179e-04	2.902909e-04
15            	7.272997e-02	3.062329e-03	1.052277e-02	6.474358e-04	2.649428e-04
16            	8.224983e-02	3.052925e-03	1.034466e-02	6.224651e-04	2.452415e-04
17            	4.966973e-02	3.019085e-03	1.032248e-02	5.858867e-04	2.286463e-04
18            	3.602202e-02	2.960339e-03	1.085067e-02	5.895592e-04	2.242762e-04
19            	2.888623e-02	2.921708e-03	1.210680e-02	5.907338e-04	2.178025e-04
20            	2.427925e-02	2.965611e-03	1.453012e-02	6.080235e-04	2.166366e-04
21            	2.132216e-02	3.110556e-03	2.007596e-02	6.162963e-04	2.184125e-04
22            	1.805861e-02	3.330548e-03	3.652143e-02	6.259759e-04	2.343263e-04
23            	1.588683e-02	3.667132e-03	6.169904e-02	6.075844e-04	2.329810e-04
24            	1.482212e-02	3.993268e-03	2.635132e-02	6.169956e-04	2.307275e-04
25            	1.412079e-02	4.408107e-03	1.738683e-02	5.675798e-04	2.154637e-04
26            	1.446469e-02	4.847613e-03	1.364763e-02	5.084743e-04	1.802915e-04
27            	1.632709e-02	5.475626e-03	1.201970e-02	4.834336e-04	1.621221e-04
28            	1.936851e-02	6.486716e-03	1.153645e-02	4.553075e-04	1.433817e-04
29            	2.608763e-02	7.790685e-03	1.175788e-02	4.310009e-04	1.308535e-04
30            	3.904624e-02	9.191934e-03	1.309865e-02	4.171571e-04	1.231867e-04
31            	7.465655e-02	1.054232e-02	1.508286e-02	4.225004e-04	1.147215e-04
32            	5.523643e-02	1.162369e-02	1.826717e-02	4.044599e-04	1.054642e-04
33            	4.525755e-02	1.250653e-02	2.361241e-02	3.834339e-04	9.849606e-05
34            	4.220614e-02	1.312809e-02	3.283805e-02	3.776757e-04	9.053457e-05
35            	4.054489e-02	1.328686e-02	5.130816e-02	3.633725e-04	8.473774e-05
36            	4.003352e-02	1.298631e-02	9.465308e-02	3.472891e-04	8.116667e-05
37            	4.077990e-02	1.245516e-02	7.539662e-02	3.295949e-04	7.861992e-05
38            	4.037170e-02	1.187966e-02	4.163469e-02	3.122699e-04	7.544314e-05
39            	4.063942e-02	1.135418e-02	2.905508e-02	2.934774e-04	7.278781e-05
40            	4.291767e-02	1.096731e-02	2.283211e-02	2.796008e-04	7.010729e-05
41            	4.352606e-02	1.061303e-02	1.936665e-02	2.691304e-04	6.873083e-05
42            	4.350892e-02	1.007674e-02	1.721722e-02	2.551544e-04	6.644891e-05
43            	4.259985e-02	9.414702e-03	1.580618e-02	2.456831e-04	6.527713e-05
44            	4.031329e-02	8.655005e-03	1.488168e-02	2.419894e-04	6.308547e-05
45            	3.754789e-02	7.892957e-03	1.417801e-02	2.348734e-04	6.193971e-05
46            	3.455473e-02	7.166712e-03	1.362384e-02	2.214219e-04	6.030989e-05
47            	3.209920e-02	6.545132e-03	1.319633e-02	2.155757e-04	5.907545e-05
48            	2.984376e-02	6.048375e-03	1.292069e-02	2.141278e-04	5.854523e-05
49            	2.793684e-02	5.664617e-03	1.270699e-02	2.082784e-04	5.715404e-05
50            	2.637970e-02	5.329595e-03	1.252721e-02	1.989771e-04	5.578111e-05
51            	2.546912e-02	5.011883e-03	1.236201e-02	1.901035e-04	5.513086e-05
52            	2.516804e-02	4.720512e-03	1.221681e-02	1.814793e-04	5.431574e-05
53            	2.492575e-02	4.452968e-03	1.205690e-02	1.726250e-04	5.285402e-05
54            	2.412317e-02	4.205193e-03	1.185134e-02	1.644017e-04	5.202727e-05
55            	2.341432e-02	3.970522e-03	1.162580e-02	1.569694e-04	5.091916e-05
56            	2.239106e-02	3.736890e-03	1.140367e-02	1.519478e-04	4.972670e-05
57            	2.145498e-02	3.497939e-03	1.119536e-02	1.454483e-04	4.884423e-05
58            	2.027535e-02	3.258324e-03	1.099608e-02	1.403332e-04	4.786899e-05
59            	1.921178e-02	3.020332e-03	1.083995e-02	1.358812e-04	4.654065e-05
60            	1.805495e-02	2.788844e-03	1.073190e-02	1.318325e-04	4.561472e-05
61            	1.702696e-02	2.564038e-03	1.070541e-02	1.266728e-04	4.405434e-05
62            	1.592496e-02	2.335027e-03	1.075512e-02	1.241535e-04	4.322456e-05
63            	1.488493e-02	2.115088e-03	1.084374e-02	1.206706e-04	4.208881e-05
64            	1.391197e-02	1.898340e-03	1.096678e-02	1.166901e-04	4.080974e-05
65            	1.295776e-02	1.684996e-03	1.102136e-02	1.142569e-04	3.973605e-05
66            	1.202464e-02	1.480825e-03	1.094687e-02	1.119642e-04	3.856478e-05
67            	1.105715e-02	1.292778e-03	1.075410e-02	1.101376e-04	3.746913e-05
68            	1.023410e-02	1.133150e-03	1.044610e-02	1.066213e-04	3.665644e-05
69            	9.399245e-03	9.972832e-04	9.968594e-03	1.043233e-04	3.567268e-05
