/*--------------------------------*- C++ -*----------------------------------*\
  =========                 |
  \\      /  F ield         | OpenFOAM: The Open Source CFD Toolbox
   \\    /   O peration     | Website:  https://openfoam.org
    \\  /    A nd           | Version:  7
     \\/     M anipulation  |
\*---------------------------------------------------------------------------*/
FoamFile
{
    version     2.0;
    format      ascii;
    class       volScalarField;
    location    "50";
    object      k;
}
// * * * * * * * * * * * * * * * * * * * * * * * * * * * * * * * * * * * * * //

dimensions      [0 2 -2 0 0 0 0];

internalField   nonuniform List<scalar> 
12842
(
0.00568296
0.00508003
0.00470358
0.00448033
0.00431766
0.00418131
0.00409062
0.00401967
0.00397218
0.00396119
0.0039354
0.00393594
0.00396357
0.00401826
0.004105
0.00420189
0.00429265
0.00440423
0.00447293
0.00457617
0.00465987
0.00477108
0.00487187
0.00562567
0.00504398
0.00466374
0.00443003
0.00428261
0.00417141
0.00408555
0.00401477
0.00397531
0.00393886
0.00393081
0.00393535
0.00395789
0.00402009
0.00412836
0.00422256
0.00430202
0.00443889
0.00450467
0.00459022
0.00465858
0.00474316
0.00486465
0.0055897
0.00494951
0.00457087
0.00438483
0.0042319
0.00413311
0.00405773
0.00399528
0.00397254
0.00393733
0.00393091
0.00394596
0.00398928
0.00408495
0.00419304
0.0043147
0.00438069
0.00447219
0.00454758
0.00466359
0.0047465
0.00482009
0.00493217
0.00552783
0.00491299
0.00452757
0.00433326
0.00420446
0.00411631
0.00404067
0.0039872
0.00396681
0.00392418
0.0039379
0.00395926
0.00400131
0.00413085
0.00424873
0.00435889
0.00445284
0.00456927
0.00463869
0.00472227
0.0047881
0.0049191
0.00504277
0.00545558
0.00480896
0.00445192
0.00427988
0.0041471
0.00407868
0.00401031
0.00397572
0.00395573
0.00392376
0.00394383
0.00399492
0.00406106
0.00420638
0.0043432
0.00447475
0.00457752
0.00462931
0.00471762
0.00484428
0.00493821
0.00506925
0.00521442
0.00539893
0.00475199
0.00439838
0.00423907
0.00412402
0.00405584
0.00398923
0.00396644
0.00394979
0.00392149
0.00395907
0.00401044
0.00409433
0.00428588
0.0044069
0.00453525
0.00466592
0.00474099
0.00479771
0.00489558
0.00501401
0.00518595
0.00535545
0.00532261
0.00467183
0.00433951
0.00418694
0.00407903
0.00402279
0.00396561
0.00395443
0.00393418
0.00391891
0.00397895
0.00406932
0.00419592
0.00439496
0.00453114
0.00464539
0.00478061
0.00485308
0.0049513
0.00504802
0.00519209
0.00537706
0.00557421
0.00526169
0.00461118
0.00429711
0.00415982
0.00406159
0.00400388
0.00395236
0.00394425
0.00392806
0.00393181
0.00400026
0.00410576
0.00426743
0.00448053
0.0046275
0.00475879
0.00487644
0.00495893
0.0050597
0.00515813
0.00534739
0.00556163
0.00576567
0.00519069
0.00454719
0.00424418
0.00411347
0.00402966
0.0039761
0.00393822
0.00393543
0.00392419
0.00395087
0.00404221
0.00416875
0.00438167
0.00459527
0.00473892
0.00488338
0.00501508
0.00511546
0.00525162
0.00538003
0.00556476
0.00583682
0.00604638
0.00511685
0.00448951
0.00421541
0.00409421
0.00401667
0.00396475
0.00393148
0.00393168
0.00392611
0.00398513
0.00410359
0.00426894
0.00451501
0.00472505
0.00485846
0.00501879
0.00514389
0.00525759
0.00541354
0.00556632
0.00578503
0.00606968
0.00630314
0.0050417
0.00442828
0.00416567
0.00405804
0.00399106
0.00394235
0.00392132
0.00392658
0.00392373
0.00400551
0.00415413
0.00437438
0.00463444
0.0048485
0.00498328
0.00515443
0.00528418
0.00542135
0.00559596
0.00579071
0.00602155
0.00629777
0.0065382
0.00496581
0.00438097
0.00414276
0.00404013
0.00397911
0.00393208
0.00391598
0.00392358
0.00393831
0.00404669
0.00422835
0.00449809
0.00477133
0.0049895
0.00513717
0.00531179
0.00545919
0.00560923
0.00581758
0.00600234
0.00624611
0.00654618
0.00679016
0.00489208
0.00432949
0.00410249
0.00401001
0.00395603
0.00391341
0.00390551
0.00392005
0.00394396
0.00407582
0.00429994
0.00461996
0.00489177
0.0051183
0.00527966
0.00547805
0.00563192
0.00580254
0.00600908
0.00624751
0.00651016
0.00679154
0.00703882
0.00481955
0.0042906
0.00408411
0.00399503
0.00394507
0.00390485
0.00390008
0.00391652
0.00397224
0.00413021
0.0043954
0.00475409
0.00503736
0.00527684
0.00546501
0.00566013
0.00583112
0.00600509
0.00626814
0.00649567
0.00675745
0.00702623
0.00726979
0.00475572
0.00424668
0.00405196
0.00397009
0.00392402
0.00388864
0.00388972
0.00390931
0.00398635
0.00417544
0.00449675
0.00488935
0.00517024
0.00542208
0.00562357
0.00584704
0.00604852
0.00625037
0.00647623
0.00671864
0.00698556
0.00724816
0.00748843
0.00469933
0.00421477
0.00403765
0.00395815
0.00391397
0.00388102
0.00388509
0.00390912
0.00403044
0.00424887
0.00461773
0.00503918
0.0053365
0.00560626
0.00583583
0.00605618
0.00624645
0.00642719
0.00672579
0.00696741
0.0072405
0.00749801
0.0077451
0.00464994
0.00417892
0.00401248
0.00393758
0.00389456
0.00386628
0.00387381
0.00390907
0.00406184
0.00431812
0.00475192
0.00519628
0.00549261
0.00577667
0.00601762
0.0062629
0.00650639
0.00672066
0.00695629
0.00723192
0.00749703
0.00773082
0.0079751
0.00460534
0.00414699
0.00399911
0.00392809
0.00388553
0.00385991
0.00387179
0.00392958
0.00413386
0.00441664
0.00489477
0.0053656
0.00568374
0.00598815
0.00624305
0.00647044
0.00668415
0.00689265
0.00722709
0.00746648
0.00771423
0.00793485
0.00819294
0.00456805
0.00412018
0.00398109
0.00391108
0.00386805
0.00384528
0.00386976
0.00394214
0.00418543
0.00450902
0.00505334
0.00554661
0.00586383
0.0061827
0.00646
0.00673769
0.00701041
0.0072188
0.00746639
0.00772722
0.00798093
0.00824199
0.00853939
0.00453211
0.00408877
0.00396531
0.00390308
0.0038595
0.00384133
0.00388904
0.00401313
0.00428599
0.00463722
0.00522013
0.00572935
0.00606508
0.00640691
0.0066832
0.00691213
0.00717238
0.00742821
0.00775514
0.00807564
0.00833849
0.00858893
0.00892297
0.00450345
0.00406425
0.00395397
0.00388845
0.00384361
0.00383671
0.00390738
0.00406644
0.00435632
0.00474288
0.00537844
0.00592093
0.00626227
0.0066134
0.00691717
0.0072321
0.00752988
0.00775847
0.00813697
0.00843412
0.00859853
0.00887528
0.00923821
0.00447479
0.00403532
0.0039382
0.00387885
0.0038374
0.00384611
0.00398426
0.00417878
0.00448298
0.00489864
0.00557673
0.00612091
0.00646405
0.0068371
0.00714698
0.00742352
0.00773816
0.00812285
0.00849035
0.0087019
0.00890167
0.00932285
0.0100019
0.00445208
0.00401319
0.00392539
0.00386867
0.0038245
0.00386065
0.00404382
0.00425438
0.0045669
0.0050079
0.00571917
0.00629534
0.00665229
0.0070449
0.00738499
0.00774096
0.00818338
0.0085203
0.00884635
0.00922904
0.00963303
0.0104966
0.0114061
0.00443023
0.00398778
0.00391815
0.00385299
0.00382824
0.00392747
0.00416069
0.00439204
0.00472559
0.00519504
0.00594012
0.00651655
0.00686836
0.00728152
0.00766123
0.00805064
0.00844596
0.00888201
0.00964846
0.0100837
0.0106245
0.0115787
0.0125963
0.00441586
0.00396927
0.00390884
0.00385113
0.00384892
0.00402102
0.00426412
0.00451015
0.00485399
0.0053431
0.00612053
0.00671692
0.00705219
0.00745003
0.00780797
0.00825518
0.00899488
0.00992154
0.0105147
0.0108386
0.0116085
0.01294
0.0146686
0.00439832
0.00395221
0.003898
0.00385308
0.00391306
0.00411255
0.00437211
0.00462865
0.00497891
0.00548915
0.00628676
0.00688002
0.0072257
0.00766913
0.00812381
0.00876089
0.00957035
0.0107871
0.0113108
0.0119175
0.0137401
0.0173177
0.021497
0.00438174
0.00393746
0.00389603
0.00388373
0.00399816
0.00422027
0.00447912
0.00474571
0.00509844
0.00561741
0.00643621
0.00704399
0.00736783
0.00780559
0.00835697
0.00928764
0.0108275
0.0118872
0.0129167
0.0155159
0.020355
0.0265719
0.0316184
0.00436528
0.00392138
0.00391064
0.00394119
0.00409976
0.00432395
0.00459015
0.00486035
0.00521343
0.00574525
0.00656579
0.00716627
0.00750837
0.00799019
0.00857048
0.00967059
0.0121725
0.0148446
0.0175874
0.0224019
0.0288887
0.0359327
0.0408042
0.0043476
0.00391024
0.00395233
0.00402325
0.00420494
0.00443807
0.00469857
0.00497076
0.00532135
0.00585484
0.00668674
0.00729894
0.00762773
0.00817292
0.00917233
0.0116391
0.0155802
0.0199511
0.0245346
0.0294986
0.0361235
0.0427741
0.047049
0.00432881
0.00390877
0.00401576
0.0041166
0.00431929
0.00454816
0.00480526
0.00507627
0.00542294
0.0059617
0.00678639
0.00739382
0.00773545
0.00832158
0.00961071
0.013571
0.0225453
0.0276568
0.0304383
0.0347909
0.0406982
0.0468949
0.0506255
0.00431355
0.00393381
0.00409896
0.00421861
0.0044296
0.00466083
0.00490889
0.00517534
0.00551613
0.00605443
0.00688305
0.00749887
0.00785681
0.00865264
0.0111562
0.0171167
0.0282103
0.0326476
0.0339263
0.0375907
0.043296
0.0490325
0.052318
0.00430255
0.00397256
0.00418799
0.00432199
0.00454584
0.00476841
0.00500622
0.00526742
0.00560191
0.00614076
0.00696357
0.00758619
0.00799197
0.00914009
0.0138321
0.0273635
0.039531
0.0352793
0.0353917
0.0388398
0.0436347
0.0487505
0.0516439
0.00428428
0.0040397
0.0042857
0.00442994
0.00465097
0.00487336
0.00509971
0.0053517
0.00567838
0.00621698
0.00703324
0.00765495
0.00810045
0.0098404
0.0189223
0.0377153
0.0444956
0.0367421
0.0359111
0.0387179
0.0421449
0.0457762
0.0485694
0.00426833
0.00411544
0.00438733
0.00453021
0.00476107
0.00496836
0.00518519
0.00542778
0.00574805
0.00628559
0.00710511
0.00776827
0.00851723
0.0125165
0.0296838
0.0481408
0.0473388
0.0374347
0.0360566
0.0372565
0.0396822
0.0425881
0.0442035
0.00426942
0.00420413
0.00447938
0.00463441
0.00485299
0.0050631
0.00526518
0.00549577
0.00580771
0.00634672
0.00715228
0.00783026
0.00885412
0.0159833
0.0431439
0.0583089
0.0493083
0.037082
0.0355875
0.0356564
0.0376504
0.0395729
0.0402291
0.00428599
0.00429458
0.00458163
0.00473012
0.00495113
0.00513999
0.00533793
0.00555581
0.00586281
0.00640214
0.007219
0.00799779
0.0101438
0.0237909
0.0543686
0.0643896
0.0498831
0.0375295
0.0350271
0.0354178
0.035983
0.0373854
0.0371774
0.00432495
0.00439959
0.00466496
0.00482251
0.00503143
0.00521946
0.00540322
0.00560823
0.00590753
0.00644904
0.0072564
0.00816289
0.0115956
0.034893
0.0624139
0.0688779
0.050053
0.0373277
0.0350613
0.034713
0.0354692
0.0363406
0.0350451
0.00437134
0.00449313
0.00475396
0.00491217
0.0051075
0.00528376
0.00546258
0.00565413
0.00595029
0.00649833
0.0073238
0.00853369
0.0147786
0.0438954
0.0683189
0.0726049
0.0503231
0.0382536
0.0350889
0.0349955
0.0354745
0.0345173
0.0336269
0.00443614
0.00459325
0.00483144
0.00499083
0.00518386
0.0053445
0.00551438
0.00569383
0.00598372
0.00653433
0.00738397
0.00909357
0.0186914
0.0491471
0.0715912
0.075686
0.0513164
0.038824
0.0352211
0.0346165
0.0349518
0.0343694
0.0323047
0.00450145
0.00468836
0.00490748
0.00507162
0.00524243
0.00539726
0.00556185
0.00572854
0.00601617
0.00658381
0.00746588
0.0096704
0.0213744
0.0515876
0.0746563
0.0801961
0.0517668
0.0411696
0.035613
0.0346811
0.0341341
0.0339252
0.0307002
0.00457913
0.00478204
0.00497553
0.00513699
0.00530118
0.00544648
0.00560107
0.00575907
0.00604246
0.00661648
0.00754525
0.0106158
0.0252405
0.0544842
0.0789694
0.0843795
0.0545675
0.0436487
0.0360306
0.0344499
0.0335808
0.03269
0.0293822
0.0046541
0.00486157
0.00504365
0.00520525
0.00535983
0.00548807
0.00563765
0.00578596
0.00606664
0.00666739
0.00767112
0.0113793
0.0285663
0.0562821
0.0821529
0.0900112
0.0585819
0.0438785
0.0360728
0.0338082
0.033298
0.0311673
0.0280402
0.00473609
0.00494336
0.0051037
0.0052631
0.00540069
0.00552642
0.00566883
0.00581019
0.00608888
0.00670275
0.00778518
0.0123137
0.0307143
0.0581425
0.0864432
0.0932639
0.0581289
0.0440289
0.0361407
0.033323
0.0323824
0.0301282
0.0269816
0.00481092
0.00501607
0.00516438
0.00531458
0.00544207
0.00555753
0.00569328
0.00583189
0.00610777
0.00675808
0.0079821
0.013132
0.0328145
0.0597617
0.0882091
0.0927396
0.0585089
0.0444917
0.0359505
0.0323257
0.0305368
0.0289655
0.0262943
0.0048893
0.00506861
0.00521386
0.00536258
0.0054833
0.00559231
0.00571858
0.00585155
0.0061262
0.00679917
0.00810922
0.0139762
0.0353425
0.0622595
0.0887038
0.092538
0.0590245
0.0443576
0.0343713
0.0300016
0.0280381
0.0271764
0.0252986
0.00495644
0.00512213
0.00526811
0.00540266
0.00549934
0.00560678
0.00573509
0.00586932
0.00614132
0.00685539
0.00833927
0.0145592
0.0369691
0.0683979
0.0852193
0.0842246
0.0595595
0.0432963
0.0309439
0.0267137
0.0249834
0.0245397
0.0233638
0.00502428
0.00515608
0.00530609
0.00543803
0.00550439
0.0056149
0.00575091
0.00588537
0.00615964
0.0069221
0.00848394
0.0152757
0.0411301
0.0707441
0.0772253
0.0721044
0.0549582
0.0388109
0.027149
0.0231485
0.0219163
0.0216617
0.0209904
0.00508014
0.00517265
0.00534752
0.0054612
0.00551651
0.00562208
0.0057666
0.00589965
0.00617302
0.0069725
0.00887656
0.0168219
0.0417997
0.0714479
0.0645649
0.0586338
0.0461706
0.0327487
0.0231869
0.01983
0.0190284
0.0189002
0.0185137
0.00513388
0.00519644
0.00537523
0.00548178
0.00553132
0.00562998
0.00577562
0.00591306
0.00619073
0.00704935
0.00897737
0.0170449
0.0385337
0.0635389
0.0500352
0.0456469
0.0362804
0.0264986
0.01966
0.0170752
0.0166009
0.0166144
0.0163778
0.00518213
0.00522018
0.0054052
0.00549875
0.00555219
0.00564563
0.00578458
0.00592541
0.00620292
0.00709406
0.00922765
0.0164822
0.0319025
0.0485707
0.0360304
0.0340629
0.0277422
0.0208775
0.0164658
0.0147642
0.0144962
0.0144809
0.0143534
0.00523019
0.0052539
0.00542982
0.00551632
0.00557339
0.00565854
0.00579018
0.00593552
0.00621677
0.00717737
0.0091269
0.0150039
0.025542
0.0392654
0.0249656
0.0247297
0.0211604
0.0168407
0.0141061
0.013189
0.0130439
0.0130822
0.0131238
0.00526885
0.00528109
0.00545668
0.0055328
0.00559621
0.00567644
0.00579837
0.005944
0.00622638
0.00722764
0.00883128
0.0133016
0.0203857
0.0283399
0.0178283
0.0180241
0.016532
0.0137714
0.0123168
0.0118533
0.0118549
0.0119698
0.0121017
0.0053111
0.00531456
0.0054837
0.00555028
0.0056171
0.00569182
0.00580592
0.00594998
0.0062345
0.00728831
0.008557
0.0118724
0.0165691
0.0218044
0.0135621
0.0136695
0.0132782
0.0117886
0.0109587
0.0107897
0.0109458
0.0111699
0.0113623
0.00534543
0.00534512
0.00551152
0.00557035
0.00564026
0.00571056
0.00581454
0.00595573
0.00624247
0.00730753
0.00830876
0.0107827
0.0139306
0.0177547
0.0110943
0.0112111
0.0111202
0.0103805
0.0100537
0.010106
0.0102686
0.0105564
0.010788
0.00538292
0.00538123
0.00553948
0.00559154
0.00566164
0.00572756
0.00582232
0.00595952
0.00625
0.00728483
0.00812804
0.00995992
0.0120847
0.0162919
0.00982152
0.00974595
0.00975139
0.00938288
0.00932484
0.00941112
0.00971418
0.00998898
0.0102426
0.00541658
0.00541775
0.00556822
0.00561599
0.00568443
0.00574671
0.00583015
0.00596347
0.00625514
0.00721674
0.00802069
0.0093811
0.0108276
0.0145803
0.00899081
0.00891744
0.0090195
0.00887519
0.00887418
0.00904973
0.00929161
0.00960542
0.00981738
0.00544925
0.00545342
0.00559356
0.00563805
0.0057044
0.00576309
0.00583758
0.005966
0.00625869
0.00714989
0.00793543
0.00899396
0.00999425
0.0122581
0.00860623
0.00846866
0.0085512
0.00854281
0.00854674
0.0087321
0.00895314
0.00917085
0.00943
0.00547744
0.00548797
0.00561809
0.00566023
0.00572388
0.00577946
0.00584451
0.00596784
0.00626178
0.00705933
0.00784861
0.00870528
0.00938062
0.0105484
0.00844457
0.0083989
0.00837639
0.00839803
0.00836604
0.00854553
0.00868448
0.00893054
0.00904444
0.0055063
0.00552062
0.00564073
0.00568102
0.00574216
0.00579493
0.00585234
0.00596974
0.00626535
0.00699878
0.00778018
0.00848368
0.00898096
0.00968805
0.00836341
0.00833758
0.00827199
0.00833536
0.00827393
0.00843318
0.00862005
0.00882323
0.00882291
0.00553227
0.00555407
0.00566312
0.00570206
0.00576091
0.00581043
0.00586057
0.00597204
0.00626745
0.00690505
0.00769105
0.0083186
0.00862866
0.00895592
0.00828553
0.00827758
0.00826581
0.0082294
0.00822411
0.00843087
0.00857724
0.00869175
0.00870412
0.00555967
0.00558563
0.00568536
0.00572201
0.00577791
0.00582529
0.00586966
0.00597493
0.00626904
0.00684667
0.00762922
0.00817011
0.00843721
0.008886
0.00829106
0.00820949
0.00824538
0.00823522
0.00817251
0.0084197
0.00854675
0.00863525
0.00865542
0.00558437
0.00561614
0.00570638
0.00574186
0.00579608
0.00583946
0.00587943
0.00597845
0.00626959
0.00680535
0.00755072
0.00806248
0.00833841
0.00871863
0.00824353
0.00820544
0.00822369
0.00817071
0.00820465
0.00840832
0.00851334
0.00861461
0.00863897
0.00561067
0.00564589
0.00572735
0.00576124
0.00581119
0.00585402
0.00588937
0.00598245
0.00627104
0.00680735
0.00747004
0.0079419
0.00826664
0.00872951
0.00825435
0.00817476
0.00817485
0.0082036
0.00816652
0.00838432
0.00851524
0.00860807
0.00862998
0.00563414
0.00567419
0.00574942
0.00577942
0.00582925
0.00586608
0.0059002
0.00598708
0.00627202
0.00680044
0.00739416
0.00785495
0.00827158
0.00870949
0.00831573
0.008163
0.00820982
0.00820409
0.00821262
0.00842102
0.00852602
0.00862317
0.00865493
0.0056594
0.00570005
0.00576803
0.00579892
0.00584246
0.00588041
0.00591052
0.00599188
0.00627351
0.0067802
0.00735646
0.00774175
0.0082667
0.00867413
0.00856064
0.00820424
0.0082085
0.00820225
0.00821019
0.00844651
0.00851915
0.00867896
0.00874032
0.00568278
0.00572666
0.0057895
0.00581541
0.00585897
0.0058915
0.00592117
0.00599714
0.00627691
0.00677746
0.00732272
0.00767379
0.00825839
0.00868615
0.00882565
0.008283
0.00820882
0.00819886
0.00816585
0.00848052
0.00851988
0.00872505
0.00879914
0.00570517
0.00574956
0.00580851
0.00583404
0.00587309
0.0059035
0.00593213
0.00600245
0.00627822
0.00677456
0.00725001
0.00755233
0.00824324
0.00874029
0.00900094
0.00835011
0.00819737
0.00818542
0.00817762
0.00852283
0.00857699
0.00879955
0.00891301
0.00572923
0.00577157
0.00582666
0.0058498
0.00588511
0.00591604
0.00594134
0.00600785
0.00628173
0.00675588
0.00718036
0.00753242
0.00828366
0.00877795
0.0091134
0.00844258
0.00827816
0.00820025
0.00821567
0.00855182
0.00861503
0.00883779
0.00897925
0.0057535
0.00579238
0.00584257
0.00586661
0.00590164
0.00592506
0.00595249
0.00601337
0.006282
0.00676584
0.0071797
0.00750758
0.00837122
0.00886657
0.0091983
0.00852284
0.00833756
0.00834355
0.00835424
0.00863102
0.0087057
0.00891166
0.00913354
0.00577299
0.00581346
0.00586197
0.00588413
0.00591126
0.00593702
0.00596095
0.00601875
0.00628715
0.00673468
0.00716916
0.00748205
0.0084931
0.00894924
0.00930292
0.0086615
0.00843155
0.0084253
0.00847126
0.00870017
0.00876813
0.00895912
0.0092061
0.00577898
0.00582204
0.00586982
0.00589016
0.00591616
0.00594727
0.00597008
0.00602402
0.00628696
0.00674618
0.00715293
0.00748951
0.00924317
0.00936883
0.00944479
0.00894549
0.00865142
0.00861243
0.0086772
0.00885364
0.00893646
0.00917951
0.00959449
0.00579343
0.00582568
0.00587586
0.00590054
0.00591971
0.00595342
0.00597923
0.00602937
0.00628798
0.00674888
0.00714917
0.00743305
0.0098544
0.00972985
0.00948731
0.00919798
0.00889472
0.00871093
0.0087736
0.00892905
0.00902829
0.00926379
0.009711
0.00580162
0.00583435
0.00587587
0.00590634
0.00592009
0.00595639
0.00598483
0.00603424
0.00628365
0.00675004
0.00714753
0.00747222
0.0103164
0.01002
0.0095023
0.00949336
0.00920216
0.0089558
0.00898944
0.00913071
0.00943306
0.0100667
0.010885
0.00580563
0.00583375
0.00587706
0.00590939
0.0059212
0.00595893
0.00599083
0.00603905
0.00628729
0.00674245
0.00714768
0.00748351
0.0105074
0.0101452
0.00961265
0.00963725
0.00935431
0.00908131
0.00909828
0.00922734
0.00954672
0.0102128
0.0112948
0.00580761
0.00583442
0.00588017
0.00591113
0.00592338
0.00595709
0.00599149
0.00604352
0.0062853
0.00677331
0.0071386
0.00747945
0.0107074
0.0102924
0.009751
0.00991069
0.00965307
0.0094525
0.00950799
0.00991683
0.0113415
0.0149068
0.0193334
0.00581067
0.00583703
0.0058801
0.00591301
0.00592448
0.00595861
0.00599358
0.00604767
0.00628767
0.00677838
0.00714049
0.00749398
0.0105846
0.0103706
0.00989447
0.0100449
0.00980805
0.00961417
0.00967397
0.0100848
0.011523
0.01544
0.0248107
0.00580987
0.00583784
0.00588323
0.00591508
0.00592833
0.00595843
0.00599223
0.00605122
0.00629192
0.00677463
0.00710974
0.00747802
0.010179
0.0103945
0.0104514
0.0105613
0.0104008
0.0104991
0.0108865
0.0124399
0.0165915
0.0249926
0.0418955
0.00580953
0.00583756
0.005886
0.00591608
0.00592521
0.00595921
0.00599226
0.00605453
0.00629496
0.00681195
0.00713773
0.00739543
0.0102252
0.0106136
0.0107201
0.0107962
0.0106495
0.0108229
0.0112932
0.0129742
0.0183381
0.0372205
0.0758198
0.00580902
0.00584041
0.00588164
0.00591619
0.00592547
0.00595611
0.00599241
0.00605715
0.00630394
0.00681936
0.00713551
0.00744286
0.0101784
0.0108635
0.0118986
0.0127121
0.0127836
0.0130332
0.0156207
0.0237058
0.041327
0.0747679
0.130322
0.00581354
0.00583991
0.005881
0.00591928
0.00592877
0.00595651
0.00599244
0.00605952
0.00630679
0.00683745
0.00714245
0.00744764
0.0101273
0.0125583
0.0129585
0.0136324
0.0136044
0.0154147
0.0182563
0.0261472
0.0514053
0.108496
0.182412
0.00580932
0.0058427
0.00588321
0.00591516
0.00592536
0.00595599
0.0059932
0.0060607
0.0063095
0.00683928
0.00715607
0.00745262
0.0100527
0.0134823
0.0156903
0.0186165
0.0191656
0.0182513
0.0251202
0.0498533
0.0853497
0.16522
0.25648
0.00580918
0.00584165
0.00588266
0.00591685
0.00592373
0.00595593
0.0059931
0.00606173
0.00631756
0.00685158
0.00714914
0.00745128
0.0107755
0.016812
0.0206826
0.0228395
0.0264523
0.0353441
0.0479171
0.0635868
0.132573
0.242576
0.367332
0.00580681
0.00584247
0.00588159
0.00591784
0.00592306
0.00595464
0.00599328
0.00606142
0.00632216
0.00685316
0.0071984
0.0075501
0.0113002
0.0203873
0.0289064
0.0344155
0.0394907
0.0453184
0.0670106
0.122496
0.211558
0.353321
0.475804
0.00580729
0.00583672
0.00587751
0.00591291
0.00592386
0.00595458
0.00599421
0.00606165
0.0063335
0.00681596
0.00719225
0.00757243
0.0140698
0.0282187
0.0475729
0.0466138
0.0521213
0.0780771
0.113711
0.173592
0.275613
0.436444
0.578034
0.00579873
0.00583801
0.0058755
0.00591184
0.00591883
0.00595546
0.00599525
0.00606118
0.00633429
0.00685891
0.00720085
0.00756003
0.0154189
0.0471955
0.0829456
0.0834005
0.0947864
0.104427
0.157924
0.244477
0.408651
0.569505
0.640188
0.00579911
0.00583842
0.00586813
0.00590996
0.00591801
0.0059559
0.0059945
0.00606068
0.00633416
0.00686426
0.00720014
0.00761264
0.0215003
0.0708905
0.1239
0.11958
0.13579
0.182352
0.240328
0.364314
0.526884
0.626597
0.681375
0.00580563
0.00583377
0.00586656
0.00590751
0.00591855
0.0059536
0.00599315
0.00605955
0.0063428
0.00687447
0.00718428
0.00773674
0.0299594
0.113612
0.179673
0.18374
0.213235
0.245627
0.353486
0.501432
0.620261
0.660849
0.68315
0.00579856
0.00583306
0.00586312
0.00590513
0.00591256
0.00595259
0.00598937
0.00605859
0.00634734
0.00691299
0.00716862
0.00797932
0.0578544
0.169914
0.219506
0.239763
0.256433
0.323174
0.451961
0.610646
0.656975
0.700927
0.696711
0.00580401
0.00582933
0.00586062
0.00590485
0.00591156
0.00594931
0.00598702
0.00605802
0.00635408
0.00695433
0.00719807
0.0084022
0.0977863
0.230428
0.26207
0.295905
0.320474
0.408714
0.551372
0.662768
0.677635
0.708532
0.704204
0.00580495
0.00582325
0.00585837
0.00589737
0.00591232
0.00594704
0.00598675
0.00605771
0.00635925
0.00696445
0.00724856
0.00906831
0.144355
0.310926
0.333955
0.342857
0.37414
0.476483
0.573309
0.673522
0.691011
0.708854
0.709402
0.00580135
0.00581183
0.0058611
0.00589663
0.00591292
0.00594645
0.00598401
0.00605735
0.00636308
0.00698307
0.00734662
0.010956
0.181582
0.354118
0.370082
0.392475
0.409226
0.482906
0.605491
0.685643
0.701499
0.712588
0.689746
0.00579633
0.00581732
0.00585766
0.00589831
0.00591065
0.00594024
0.0059834
0.00605725
0.00637528
0.00693557
0.00745172
0.0126015
0.212983
0.379266
0.38306
0.403024
0.428214
0.491752
0.599531
0.692838
0.709564
0.687651
0.620963
0.0057826
0.00580778
0.0058599
0.00590004
0.00590567
0.00593941
0.00597985
0.006057
0.00637316
0.0069699
0.00756595
0.0146869
0.275717
0.359925
0.363569
0.388096
0.42344
0.492566
0.587161
0.669109
0.670467
0.619285
0.526456
0.00577271
0.00581241
0.00586191
0.0058968
0.00589684
0.00594117
0.00597439
0.00605721
0.00640629
0.00693948
0.00773386
0.0190661
0.385604
0.338553
0.329738
0.355793
0.390796
0.455359
0.530969
0.583804
0.591523
0.520991
0.43055
0.00576693
0.00581138
0.00585673
0.00589289
0.00589549
0.0059415
0.00597309
0.00605623
0.0063979
0.00694697
0.00790365
0.0215339
0.479625
0.301662
0.27949
0.307812
0.343455
0.392125
0.44417
0.496495
0.494282
0.427102
0.348788
0.00575038
0.0058074
0.00585037
0.005886
0.00589735
0.00593913
0.00597436
0.00605631
0.00639938
0.00697936
0.00819512
0.0256851
0.456558
0.299093
0.250746
0.271487
0.294567
0.323717
0.364201
0.385124
0.391387
0.336269
0.267993
0.00574764
0.00579504
0.00584338
0.00587548
0.0058959
0.00592977
0.00597231
0.00605232
0.00638909
0.00699129
0.00826996
0.0278469
0.318348
0.280166
0.235797
0.236476
0.251636
0.262358
0.28495
0.299059
0.313436
0.26883
0.218658
0.00575011
0.00578552
0.0058313
0.00586081
0.00588885
0.00592156
0.00596706
0.00604488
0.00636211
0.00697979
0.00836776
0.0312668
0.283668
0.244049
0.245551
0.258328
0.23086
0.226533
0.241559
0.244234
0.250947
0.225144
0.182485
0.00574773
0.00577413
0.00581304
0.00585576
0.00588038
0.00591365
0.00596038
0.00603703
0.00633625
0.00698977
0.00850885
0.0438255
0.270508
0.217915
0.264221
0.258864
0.209127
0.198521
0.205066
0.205547
0.204759
0.181919
0.139618
0.00574109
0.00575199
0.00580706
0.00585745
0.00587225
0.00590772
0.00595306
0.00603019
0.00631563
0.00698733
0.00857757
0.0494775
0.238372
0.239041
0.243297
0.226669
0.184631
0.173917
0.175918
0.164514
0.154855
0.135476
0.10344
0.00572396
0.00574481
0.00580882
0.00584952
0.00586572
0.00590056
0.00594371
0.00602244
0.00629908
0.00700971
0.00905579
0.0651926
0.236122
0.288082
0.221871
0.200463
0.158254
0.144266
0.14073
0.128806
0.116613
0.0977916
0.0774759
0.00570589
0.0057467
0.00579992
0.00583409
0.00585718
0.00588889
0.00593368
0.00601476
0.00628708
0.00706812
0.00966668
0.0862653
0.234668
0.284214
0.19789
0.166361
0.129776
0.116343
0.110907
0.101986
0.09223
0.0785552
0.0655629
0.00568318
0.00573484
0.00578636
0.00581942
0.00584521
0.00587236
0.00592096
0.00600492
0.00626771
0.0070781
0.0107217
0.111841
0.269776
0.251548
0.172832
0.143662
0.107614
0.0967295
0.0921047
0.0856171
0.0768787
0.0656565
0.0522704
0.00565564
0.00571697
0.00576159
0.00579782
0.00583086
0.00585785
0.00590748
0.0059952
0.00628699
0.0074032
0.0114133
0.127903
0.260502
0.219351
0.14628
0.119097
0.092834
0.0862055
0.0825344
0.0769481
0.0687622
0.0562798
0.0406085
0.00562566
0.00569294
0.00573302
0.00576772
0.00580961
0.00584056
0.00588991
0.00598244
0.00628918
0.00749191
0.0133226
0.173182
0.232128
0.180956
0.129977
0.101814
0.0844601
0.0803817
0.0760798
0.0689764
0.0574969
0.0465562
0.0325036
0.00560576
0.00566627
0.00570036
0.00573816
0.0057875
0.00582202
0.00587123
0.00597041
0.00628539
0.00750363
0.0144334
0.156744
0.204428
0.157904
0.113088
0.0919116
0.0789466
0.0761808
0.0720526
0.0654802
0.0560492
0.0440809
0.0312352
0.00557918
0.00563556
0.00567558
0.00571833
0.00575836
0.00579683
0.00584662
0.00595448
0.00629611
0.00833242
0.0224846
0.173734
0.175114
0.134776
0.0990297
0.0828643
0.0768252
0.0737887
0.0694059
0.0628459
0.0536116
0.0408602
0.029211
0.00554351
0.00559664
0.00565059
0.00569276
0.00572667
0.00576947
0.00582078
0.00594032
0.00627337
0.00805866
0.0226477
0.134727
0.149905
0.110774
0.0950124
0.0824169
0.0746012
0.0718535
0.0683545
0.0642328
0.0562614
0.0441784
0.0292327
0.00549931
0.00555042
0.0056124
0.00565641
0.00568676
0.00573317
0.00578683
0.00592023
0.00626237
0.00845425
0.0197462
0.0901979
0.122302
0.100369
0.0885172
0.081059
0.0723476
0.0700881
0.0683683
0.0654672
0.0587797
0.0445113
0.0300364
0.00545277
0.00550576
0.00556828
0.00561557
0.00564447
0.00569461
0.0057518
0.00590162
0.00623284
0.0089875
0.026642
0.08962
0.108905
0.0905734
0.0891889
0.085646
0.0782976
0.0745273
0.07193
0.0706063
0.0635148
0.0427606
0.0271712
0.00539587
0.00545318
0.00551075
0.00556257
0.00559056
0.0056441
0.00570559
0.00587252
0.00623738
0.00982376
0.0283036
0.0814515
0.100253
0.0906192
0.0948372
0.0950626
0.0917055
0.0882139
0.0827598
0.0776191
0.0629504
0.039736
0.0268412
0.00533562
0.00539861
0.00544829
0.00550604
0.00553423
0.00559146
0.00565838
0.0058418
0.00619707
0.0101129
0.0225401
0.0723521
0.0930023
0.0909881
0.095872
0.0938742
0.0909069
0.0896909
0.0833032
0.0783351
0.0637787
0.0404487
0.0250727
0.00526091
0.0053278
0.00537125
0.00543458
0.00546387
0.00552291
0.00559544
0.00579193
0.00615632
0.0101904
0.024539
0.0549936
0.0857868
0.0927316
0.100348
0.101365
0.09878
0.0965089
0.0942503
0.0892626
0.0615027
0.039004
0.0259746
0.00518248
0.00525319
0.00529411
0.00536062
0.00539295
0.00545294
0.00553166
0.00573813
0.00609092
0.0100706
0.0240283
0.0551753
0.0812712
0.0957976
0.109344
0.111178
0.111771
0.110952
0.108849
0.0877385
0.0608601
0.0391991
0.024276
0.00508565
0.00515777
0.00520101
0.00526685
0.00530343
0.00536182
0.0054457
0.0056591
0.006127
0.0134386
0.024614
0.0501521
0.0808719
0.0998609
0.120261
0.121618
0.12217
0.123357
0.117765
0.0818342
0.0575114
0.0358141
0.0167603
0.00498651
0.00506137
0.0051096
0.00517221
0.00521425
0.00527121
0.00536034
0.00557674
0.00611959
0.0139833
0.026823
0.0488478
0.0799855
0.104229
0.1315
0.135947
0.143478
0.137818
0.12364
0.0794631
0.0507674
0.0229466
0.0117539
0.00486449
0.00494003
0.00499412
0.00505116
0.00509819
0.00515229
0.00524477
0.00546123
0.00612054
0.0131747
0.0304044
0.0475004
0.0828197
0.116853
0.152468
0.159287
0.157998
0.147994
0.114158
0.0754673
0.0338582
0.0132335
0.00905642
0.0047438
0.0048222
0.00488116
0.00493337
0.00498503
0.00503824
0.00513477
0.00534396
0.00580816
0.0142412
0.0345357
0.048551
0.0895869
0.128331
0.17243
0.182556
0.184175
0.146762
0.111342
0.0564789
0.0171894
0.00924412
0.00729387
0.0045942
0.00467278
0.00473383
0.00478015
0.00483439
0.00488578
0.00498464
0.00521174
0.00690019
0.0190041
0.0468227
0.0526445
0.0990804
0.141981
0.19892
0.205745
0.184968
0.142889
0.0950893
0.0296435
0.0104167
0.00713485
0.00628647
0.00445336
0.00453462
0.0045955
0.00463897
0.00469501
0.00474748
0.00485084
0.00509324
0.00733605
0.0220639
0.0591529
0.065543
0.109896
0.169701
0.2217
0.207039
0.184046
0.134374
0.0659545
0.0146073
0.00737522
0.00603786
0.00566698
0.00427449
0.0043535
0.00441078
0.00444919
0.00450392
0.00455571
0.00466344
0.00494335
0.00812149
0.0345924
0.105409
0.0852476
0.151677
0.234491
0.252971
0.210231
0.174138
0.113135
0.0327463
0.00879561
0.00590964
0.00540657
0.00524921
0.00411845
0.00419956
0.00425092
0.00428865
0.00434255
0.0043966
0.00450678
0.00479492
0.00847735
0.0593114
0.13209
0.137918
0.246189
0.288606
0.269113
0.213845
0.15661