/*--------------------------------*- C++ -*----------------------------------*\
  =========                 |
  \\      /  F ield         | OpenFOAM: The Open Source CFD Toolbox
   \\    /   O peration     | Website:  https://openfoam.org
    \\  /    A nd           | Version:  7
     \\/     M anipulation  |
\*---------------------------------------------------------------------------*/
FoamFile
{
    version     2.0;
    format      ascii;
    class       volScalarField;
    location    "50";
    object      nut;
}
// * * * * * * * * * * * * * * * * * * * * * * * * * * * * * * * * * * * * * //

dimensions      [0 2 -1 0 0 0 0];

internalField   nonuniform List<scalar> 
12842
(
0.00181125
0.00179422
0.00177339
0.00178202
0.00177829
0.00177075
0.00176757
0.00175523
0.00175536
0.00176194
0.00175678
0.00176525
0.00177689
0.00152268
0.000713332
0.000397768
0.000258342
0.000187765
0.000144348
0.000117307
9.83989e-05
8.71996e-05
7.63021e-05
0.00180547
0.00180102
0.00177899
0.00176946
0.00177012
0.00177066
0.00177067
0.00176281
0.00176243
0.00175549
0.00175971
0.00176897
0.00177809
0.00158008
0.0007342
0.000406396
0.000262209
0.000190873
0.000146228
0.000118175
9.86069e-05
8.72097e-05
7.62879e-05
0.0018061
0.00179091
0.00176802
0.00177857
0.001763
0.00176456
0.00176264
0.00176006
0.0017684
0.001758
0.00176182
0.00177562
0.00179301
0.00160338
0.000746563
0.000415017
0.000268059
0.000193521
0.000148366
0.000120611
0.00010079
8.92834e-05
7.76108e-05
0.0018064
0.00179765
0.00177135
0.0017714
0.00176743
0.0017694
0.00176203
0.00176281
0.00176996
0.00175715
0.00176989
0.00178473
0.00180035
0.00158386
0.000744396
0.000416699
0.000270666
0.0001966
0.000150762
0.000121949
0.00010164
9.15913e-05
7.9576e-05
0.00180082
0.0017898
0.00177211
0.00177588
0.00176089
0.00176626
0.00175738
0.00176506
0.00176813
0.00176084
0.00177516
0.00180052
0.00182615
0.00153958
0.000731317
0.000415286
0.000273198
0.000196891
0.000151924
0.000124355
0.000104488
9.46705e-05
8.24589e-05
0.00180421
0.00178431
0.00176561
0.00177335
0.00176481
0.00176569
0.00175399
0.00176671
0.00176852
0.00176166
0.00178782
0.0018084
0.00183258
0.00155169
0.000734251
0.000416752
0.00027545
0.000199505
0.000153485
0.000125359
0.000106135
9.74889e-05
8.52396e-05
0.00180041
0.00178588
0.00176961
0.00177221
0.00176404
0.00176303
0.00175238
0.00176744
0.00176488
0.00176752
0.00179568
0.00183159
0.00187736
0.00150991
0.000729003
0.000418398
0.000278395
0.000202908
0.000157379
0.000128616
0.000109519
0.000101181
8.89042e-05
0.00180013
0.00177687
0.00176484
0.0017716
0.00176743
0.00176308
0.00175205
0.00176729
0.001765
0.00177339
0.00180497
0.00184144
0.00189627
0.00157401
0.000737686
0.000421425
0.000279399
0.000204583
0.0001603
0.000131956
0.000113695
0.000106198
9.37612e-05
0.00179908
0.00178033
0.00176596
0.00176852
0.00176682
0.00175935
0.00175313
0.00176689
0.00176467
0.00178509
0.0018209
0.00186802
0.00194409
0.00171111
0.000770038
0.000432058
0.000285324
0.000210357
0.000166582
0.000138273
0.000118877
0.000112584
9.8866e-05
0.00179665
0.00177075
0.00176443
0.00176816
0.00176947
0.00175876
0.00175492
0.00176711
0.00176883
0.00179925
0.00184195
0.00189874
0.00197872
0.00173782
0.000800464
0.000450415
0.000296671
0.000215738
0.000170196
0.000141466
0.000121948
0.000115698
0.000101475
0.00179589
0.00177281
0.00176288
0.00176672
0.00176801
0.00175579
0.00175648
0.00176758
0.00176754
0.00180749
0.00185987
0.00193479
0.0020163
0.00170399
0.000803852
0.000457864
0.000301722
0.000221254
0.000175808
0.000147481
0.000127434
0.000120705
0.00010629
0.00179377
0.00176765
0.00176174
0.00176584
0.00176822
0.00175494
0.00175767
0.00176768
0.00177755
0.00181977
0.00188351
0.00196491
0.00203472
0.00173441
0.000830433
0.000473251
0.000316092
0.000231413
0.000184361
0.000154668
0.000134378
0.000128168
0.000113785
0.0017913
0.00176863
0.00176118
0.00176445
0.00176648
0.00175263
0.00175857
0.00176779
0.00178153
0.0018319
0.00190714
0.00200048
0.0020655
0.00172679
0.000845537
0.000493079
0.000328217
0.000240525
0.000193743
0.000164583
0.000144825
0.000138046
0.000123081
0.00178993
0.00176719
0.00176096
0.00176369
0.00176535
0.00175182
0.00175878
0.00176791
0.00179479
0.00185024
0.00193381
0.00202628
0.00207294
0.00179274
0.000888646
0.000516882
0.000349056
0.000257102
0.000208166
0.000177993
0.000156262
0.000148183
0.0001327
0.00178645
0.00176578
0.00176186
0.00176274
0.00176257
0.00175102
0.00175849
0.00176707
0.00180199
0.00186688
0.00196059
0.00205695
0.00209829
0.00178376
0.00089956
0.000538072
0.000366093
0.000272044
0.000223179
0.000190418
0.000168376
0.000161764
0.000148056
0.00178521
0.00176646
0.00176254
0.00176196
0.00176114
0.00175077
0.00175857
0.00176841
0.00181767
0.00188663
0.00198392
0.00207416
0.00209368
0.0018632
0.000955313
0.00057235
0.000391156
0.000289663
0.000237557
0.000206678
0.000188749
0.000183674
0.000169305
0.00178198
0.00176445
0.00176498
0.00176108
0.00175824
0.00175033
0.00175768
0.00177131
0.00183218
0.00190306
0.00200639
0.00209518
0.00211146
0.0018657
0.00096123
0.000588155
0.00040699
0.000309556
0.000260369
0.000232119
0.000211779
0.000201403
0.00018925
0.00178049
0.00176284
0.00176547
0.00176074
0.00175717
0.00175066
0.0017587
0.00177808
0.00185219
0.00191695
0.00202012
0.00210137
0.00209399
0.00197164
0.00102964
0.000630106
0.000439991
0.000337544
0.000287241
0.00025276
0.000236615
0.000234375
0.000239186
0.00177833
0.00176233
0.00176967
0.00176072
0.00175516
0.00175054
0.00176243
0.00178572
0.00186395
0.00192805
0.00203427
0.00211301
0.0021034
0.00198709
0.00105619
0.000674242
0.000476295
0.000368268
0.000311884
0.00028762
0.000293099
0.00030117
0.000299639
0.00177649
0.00175885
0.00176834
0.00176109
0.00175464
0.00175174
0.00177118
0.00180725
0.00187451
0.00193617
0.00204088
0.00211153
0.00208252
0.00198347
0.00112869
0.000701526
0.00050165
0.000406109
0.000366045
0.000360152
0.000362033
0.000358551
0.000375555
0.00177569
0.00175677
0.00177416
0.00176179
0.00175381
0.00175555
0.00177958
0.00182306
0.0018803
0.00194001
0.00204452
0.0021149
0.00208168
0.0019694
0.00117475
0.00078607
0.000578195
0.000469303
0.00043821
0.000405859
0.000409741
0.000473714
0.000582104
0.00177389
0.00175342
0.0017728
0.0017631
0.00175322
0.0017587
0.00180646
0.00184246
0.00188629
0.00194534
0.00205208
0.00211474
0.00206535
0.00193225
0.00124006
0.000816449
0.000622538
0.000537678
0.000477302
0.000463147
0.000537413
0.000597105
0.000544686
0.00177459
0.00175103
0.00177656
0.00176376
0.00175307
0.00176846
0.00182336
0.00185064
0.00188916
0.00194439
0.00204817
0.00210913
0.00205356
0.00191064
0.00129969
0.000907855
0.000693804
0.000567055
0.000540799
0.000597315
0.000641576
0.00056116
0.000498339
0.00177162
0.0017465
0.00178048
0.00176288
0.00175292
0.00179188
0.00184683
0.00186517
0.00189532
0.00194929
0.00205436
0.00210944
0.00203608
0.00186253
0.00137873
0.000963532
0.00077122
0.000660403
0.000701028
0.000705043
0.000598239
0.000492616
0.000370899
0.0017743
0.00174505
0.00177998
0.00176546
0.00175826
0.00181835
0.00185619
0.00187065
0.00189676
0.00194891
0.00205419
0.00210739
0.00202413
0.00184212
0.00141368
0.00105688
0.000841749
0.000804298
0.00079562
0.000654563
0.000508473
0.000349109
0.000272646
0.00177156
0.0017432
0.00177963
0.00176591
0.00176913
0.00182932
0.00186235
0.00187198
0.00189635
0.00195009
0.00205578
0.00210218
0.00199421
0.00177883
0.00151549
0.00120803
0.000960548
0.000925976
0.000751564
0.000557078
0.000375292
0.000302456
0.000287981
0.00177386
0.00174361
0.0017828
0.00177623
0.00178224
0.00184069
0.00186084
0.00187101
0.00189408
0.00194618
0.00205319
0.00209763
0.00197221
0.0017344
0.00147646
0.00125454
0.00110078
0.000901847
0.000641738
0.000447177
0.000366579
0.000343744
0.000344367
0.00177238
0.00174036
0.00179022
0.00178584
0.0017906
0.00184347
0.00185942
0.00186808
0.00189156
0.00194617
0.00205274
0.00209273
0.0019524
0.00170307
0.00140401
0.00122396
0.00111738
0.000828278
0.000546769
0.000438972
0.000395504
0.000392419
0.00039654
0.00177566
0.00174193
0.00180578
0.00179833
0.00179984
0.00184608
0.00185443
0.00186519
0.00188833
0.00194212
0.00204954
0.0020816
0.00190102
0.00161286
0.00137415
0.00132583
0.00104917
0.000676128
0.000513733
0.000444884
0.000422761
0.000431562
0.00043363
0.00177432
0.00174381
0.00182329
0.00180774
0.00180398
0.00184574
0.00184994
0.00186154
0.00188555
0.00194169
0.00204956
0.00208118
0.00188964
0.00158676
0.00135945
0.00128627
0.000939587
0.00062347
0.000500115
0.00045464
0.000442922
0.000456207
0.000451717
0.00177921
0.00176002
0.00183647
0.0018145
0.00180997
0.00184348
0.00184515
0.0018588
0.0018826
0.00193914
0.00204597
0.00206552
0.0018408
0.00150618
0.0013461
0.00106663
0.000728338
0.000577883
0.000486882
0.000459432
0.000455618
0.000469489
0.000466577
0.00178087
0.00177879
0.00184873
0.0018199
0.00181234
0.00184267
0.00184067
0.00185583
0.00188022
0.00193863
0.0020481
0.00206615
0.00181373
0.00144217
0.00135467
0.000991782
0.000782921
0.00054369
0.000482163
0.000461658
0.000456913
0.000472367
0.000470165
0.00178278
0.00180606
0.00185238
0.00182349
0.00181498
0.0018379
0.00183813
0.00185374
0.00187773
0.00193753
0.00204213
0.00203959
0.00174145
0.00138904
0.00126361
0.000962929
0.000761269
0.000538994
0.000481424
0.000460172
0.000451323
0.000465089
0.000468648
0.00177984
0.00183209
0.00185991
0.00182504
0.00181837
0.00183609
0.00183517
0.00185155
0.00187603
0.00193726
0.00204744
0.00204387
0.00173414
0.00137361
0.00123383
0.000939536
0.000754247
0.000543745
0.00048211
0.000454101
0.000451218
0.000468751
0.000466174
0.00178652
0.00184973
0.00185611
0.00182768
0.00181771
0.0018331
0.00183522
0.00184998
0.00187395
0.00193708
0.00203824
0.00199875
0.00158954
0.0014144
0.00118276
0.00103854
0.000776502
0.000538855
0.000493724
0.000471116
0.000471905
0.000482616
0.000473025
0.00179404
0.00186222
0.00185919
0.00182788
0.0018217
0.0018281
0.00183452
0.00184836
0.00187311
0.00193754
0.00204544
0.00199901
0.00163133
0.00146593
0.00117564
0.00107103
0.000783601
0.000569226
0.000523459
0.000508628
0.000501424
0.000509927
0.000488968
0.00180396
0.00187072
0.00185266
0.00182991
0.00182125
0.00182739
0.0018358
0.00184711
0.00187142
0.00193737
0.00203353
0.00193549
0.00145613
0.00142997
0.00118065
0.00114159
0.000800748
0.000613538
0.000575091
0.000551439
0.000551337
0.000556424
0.000514364
0.00180962
0.00187168
0.00185164
0.00182935
0.00182193
0.00182324
0.00183644
0.0018457
0.0018713
0.00193955
0.00203782
0.00193065
0.00148068
0.00137192
0.00122462
0.00118924
0.000855208
0.000677123
0.000630583
0.000618011
0.000619779
0.000590155
0.000545554
0.00181715
0.00187089
0.00184488
0.00183107
0.00182439
0.0018209
0.00183793
0.00184472
0.00187015
0.00193904
0.00202641
0.00187036
0.00148889
0.00132812
0.00126725
0.00123416
0.000942066
0.000741009
0.0006709
0.000675377
0.000677963
0.000653427
0.000581927
0.00181871
0.00186857
0.00184165
0.00183001
0.00182323
0.00181893
0.00183883
0.00184338
0.00187027
0.00194373
0.00202559
0.00184004
0.00148591
0.00128739
0.00131511
0.00131467
0.00100377
0.000857709
0.000724908
0.000742706
0.000729581
0.000715015
0.000615711
0.00182128
0.00186532
0.00183501
0.00182993
0.00182302
0.00181757
0.00183946
0.00184267
0.0018699
0.00194352
0.00200956
0.00184436
0.00151353
0.00132687
0.00143792
0.00140984
0.00111214
0.000967408
0.000785858
0.000797868
0.000781276
0.000755816
0.000656109
0.0018198
0.00185885
0.00182877
0.00182901
0.00182421
0.00181714
0.00183933
0.00184147
0.00186977
0.00195046
0.00201785
0.00181643
0.0015861
0.00133019
0.00154425
0.00154751
0.00123652
0.00103004
0.000845134
0.000833309
0.000830087
0.000779292
0.00068928
0.00182466
0.00185444
0.00182355
0.00182786
0.00182129
0.00181755
0.00183965
0.00184112
0.00187024
0.00195125
0.00199327
0.0017937
0.00153247
0.00136278
0.00167986
0.00169226
0.00125256
0.00108151
0.00090834
0.000864449
0.000852076
0.000799051
0.000713443
0.00182372
0.00184905
0.00182276
0.00182246
0.00182073
0.0018185
0.00183733
0.00184043
0.00186988
0.00195978
0.00200461
0.00176242
0.0015252
0.00139857
0.00175097
0.00177287
0.00128024
0.00112388
0.000945212
0.000865885
0.000830524
0.000799686
0.000728637
0.00183099
0.00184001
0.00182089
0.00182326
0.00182339
0.00182171
0.00183668
0.00184074
0.00187052
0.00196301
0.00197458
0.00174776
0.00150972
0.00144825
0.00178414
0.00194165
0.00135326
0.00114034
0.000933212
0.000823854
0.00077635
0.000763914
0.000719692
0.00183241
0.00183378
0.00182287
0.00182232
0.00181859
0.00181995
0.00183454
0.00184043
0.00186997
0.0019689
0.00196688
0.00172178
0.00146672
0.00160166
0.00178399
0.00195341
0.00147925
0.00114415
0.000880345
0.00076639
0.000715178
0.000702494
0.000672682
0.00184088
0.00182565
0.00182122
0.00182494
0.00181298
0.00181704
0.00183338
0.00184112
0.00187128
0.00197897
0.00196009
0.00168731
0.00161637
0.00167021
0.00175244
0.00187636
0.00150923
0.00109883
0.000829566
0.000712216
0.000674029
0.00065706
0.000628402
0.0018434
0.00181199
0.00182284
0.00182362
0.0018094
0.00181444
0.0018334
0.00184105
0.00187106
0.00198221
0.00195863
0.00172339
0.00173234
0.00181935
0.00171511
0.00173446
0.00141215
0.0010246
0.000772486
0.000665863
0.000639374
0.000621092
0.000588658
0.00185066
0.00180563
0.00182353
0.00182247
0.00180861
0.00181298
0.00183248
0.00184178
0.00187267
0.00199551
0.00194901
0.00176709
0.00178508
0.001792
0.00162076
0.00157106
0.00124503
0.000934865
0.000732962
0.000639905
0.000622976
0.000604998
0.000572538
0.0018512
0.00179804
0.00182536
0.00181932
0.00180962
0.00181336
0.0018319
0.00184199
0.00187287
0.00199652
0.00195167
0.00180993
0.0017441
0.00172059
0.00150402
0.00143337
0.00107333
0.00084425
0.000687451
0.000620921
0.000609763
0.000578573
0.000542884
0.00185695
0.0017972
0.00182739
0.00181767
0.0018117
0.00181369
0.00183193
0.0018425
0.00187428
0.00201275
0.00196653
0.00182064
0.00167332
0.00182083
0.00138608
0.00128954
0.000947162
0.000782472
0.000677889
0.000633686
0.000604983
0.000566415
0.000533752
0.00185691
0.00179417
0.00182895
0.00181536
0.00181463
0.00181473
0.0018325
0.00184247
0.00187509
0.00201746
0.0019714
0.00180152
0.00160417
0.00192652
0.00129751
0.00116009
0.000880395
0.000744989
0.00067503
0.000640286
0.000597508
0.000555622
0.000522221
0.00186064
0.0017952
0.00183019
0.00181429
0.00181686
0.00181543
0.00183358
0.0018421
0.00187585
0.00203477
0.00199039
0.00180246
0.00152273
0.00175174
0.000846213
0.000916714
0.000852716
0.000747141
0.000687868
0.0006445
0.000591648
0.0005495
0.000523541
0.00185947
0.00179514
0.00183089
0.00181408
0.00181924
0.00181664
0.00183417
0.0018418
0.00187733
0.00204518
0.00200759
0.00181689
0.00146934
0.00118326
0.000527756
0.000578005
0.000839411
0.000760139
0.00070808
0.000650464
0.00058234
0.000541924
0.00051342
0.00186019
0.00179804
0.00183098
0.00181481
0.00182074
0.00181754
0.00183456
0.00184114
0.00187864
0.00204656
0.00202846
0.0014772
0.00143021
0.00156343
0.000398735
0.00037076
0.000593209
0.00077329
0.000718025
0.000559217
0.000428862
0.000373014
0.000394642
0.00185906
0.0018006
0.00183142
0.00181615
0.00182192
0.00181882
0.00183438
0.0018405
0.00187966
0.00203412
0.00190374
0.0011533
0.00141717
0.00145785
0.000338856
0.00028709
0.000380039
0.000563946
0.000716889
0.000651587
0.000589025
0.000556977
0.000477526
0.00185851
0.00180377
0.0018317
0.00181703
0.00182273
0.00181955
0.00183404
0.00183958
0.00188025
0.00202188
0.00178517
0.00108114
0.00141562
0.000805028
0.00031175
0.000265006
0.000286925
0.000295643
0.000296669
0.000242916
0.000249894
0.000284721
0.000354635
0.00185701
0.0018068
0.00183231
0.00181771
0.00182348
0.00182043
0.00183338
0.00183864
0.00187995
0.00200312
0.00181433
0.00104677
0.00119458
0.000700424
0.000347487
0.000263347
0.000274016
0.000324953
0.000431713
0.000462277
0.000592303
0.000568358
0.000525556
0.00185547
0.00180923
0.00183274
0.00181809
0.00182399
0.00182088
0.00183269
0.00183767
0.0018807
0.00199065
0.00186346
0.00104363
0.00108132
0.000780782
0.000379747
0.000265663
0.000259937
0.000298984
0.000405736
0.000465062
0.0006028
0.000581724
0.00053356
0.00185346
0.00181202
0.00183334
0.00181832
0.0018249
0.00182148
0.0018319
0.00183682
0.00187959
0.00197082
0.00192042
0.00106084
0.00101432
0.000696504
0.00037326
0.000276415
0.000257472
0.000286446
0.00038176
0.000470196
0.000605649
0.00058092
0.000539089
0.00185122
0.00181428
0.00183372
0.00181846
0.00182533
0.00182187
0.00183117
0.00183614
0.00187994
0.00196127
0.00198563
0.00109024
0.000972287
0.000660251
0.00038962
0.000291975
0.000264939
0.00029289
0.000374923
0.000556617
0.000606801
0.000581182
0.000544879
0.00184904
0.00181587
0.00183412
0.00181884
0.00182621
0.00182204
0.00183046
0.00183555
0.00187984
0.00195429
0.00204319
0.00113009
0.000944607
0.000643417
0.000433529
0.000319139
0.000273476
0.000291201
0.000365533
0.000601342
0.000603713
0.000573332
0.00054346
0.00184687
0.00181798
0.00183404
0.001819
0.00182651
0.00182254
0.00182969
0.00183504
0.00188043
0.00195938
0.00203394
0.00115592
0.000922294
0.000663138
0.000462719
0.000353429
0.000287297
0.000296004
0.000355709
0.000584653
0.000601491
0.00056089
0.000536468
0.00184456
0.00181886
0.00183428
0.0018194
0.00182729
0.00182226
0.00182918
0.00183462
0.001882
0.00195729
0.00202437
0.00120824
0.000908312
0.000673995
0.000440053
0.000393013
0.000317694
0.000304699
0.000349348
0.000554209
0.000570083
0.000550467
0.000520533
0.00184263
0.00181961
0.00183385
0.00181993
0.00182711
0.00182267
0.00182842
0.00183414
0.00188198
0.00195219
0.00202509
0.00125264
0.000888096
0.000658193
0.00049473
0.000438418
0.00034538
0.000327252
0.000347084
0.000500533
0.000519156
0.000533521
0.000495449
0.00184087
0.00182095
0.00183356
0.00182009
0.00182783
0.00182255
0.00182781
0.0018337
0.00188409
0.00195274
0.00202855
0.00128855
0.000881317
0.000651908
0.000628946
0.000505136
0.000372174
0.000354109
0.00034457
0.000469719
0.000482518
0.000498302
0.0004534
0.00183858
0.00182072
0.0018334
0.00182073
0.0018275
0.00182234
0.00182754
0.00183321
0.00188401
0.0019522
0.00201194
0.00132911
0.000874133
0.00066609
0.000738826
0.000567081
0.000401114
0.000378281
0.000354669
0.000452333
0.000456187
0.000463351
0.000427161
0.00183711
0.00182115
0.00183258
0.00182078
0.00182735
0.00182289
0.00182645
0.00183272
0.00188545
0.00194924
0.00199606
0.0013541
0.00089574
0.000689278
0.000752611
0.00064883
0.000463473
0.000406098
0.000372002
0.000445879
0.00044166
0.000445044
0.000415486
0.00183672
0.0018213
0.00183139
0.00182108
0.00182779
0.00182205
0.00182656
0.00183215
0.00188589
0.00195095
0.00200375
0.00134322
0.00102225
0.000736456
0.000751121
0.000746106
0.000530613
0.000453787
0.000405668
0.000456713
0.000432368
0.000441432
0.000415937
0.00183322
0.0018215
0.00183088
0.00182187
0.00182642
0.00182259
0.00182548
0.00183179
0.00188743
0.00194196
0.00200493
0.00135557
0.00134425
0.000807983
0.00075327
0.000759466
0.000644532
0.000512036
0.000447456
0.000453872
0.000424588
0.000436394
0.000425707
0.00182774
0.00181682
0.00182776
0.0018186
0.00182362
0.0018218
0.00182501
0.00183105
0.00188776
0.00194537
0.00200274
0.0013511
0.00132011
0.000845064
0.000768035
0.00075842
0.00080338
0.000598907
0.000515625
0.000466719
0.000431289
0.000448916
0.000459577
0.00182263
0.00181469
0.00182345
0.00181786
0.0018205
0.00182068
0.00182388
0.00183077
0.00188788
0.00194722
0.00199864
0.00127288
0.00128895
0.000950184
0.000784077
0.000790133
0.000870504
0.000708883
0.000572642
0.000491419
0.00044721
0.000466638
0.000481291
0.00181954
0.0018156
0.00181988
0.00181695
0.00181792
0.00181963
0.00182335
0.00183011
0.00188595
0.00194444
0.00200009
0.00128819
0.00128381
0.00104915
0.000817038
0.000848375
0.000855798
0.000751434
0.000666402
0.000549983
0.00048811
0.000506808
0.000508574
0.00181665
0.00181313
0.00181817
0.00181781
0.00181553
0.00181933
0.00182334
0.00182964
0.00188605
0.00194207
0.00200218
0.00126521
0.0012896
0.00114563
0.000882591
0.000865382
0.000836343
0.000743748
0.000658113
0.00061005
0.000531759
0.000526719
0.000502598
0.00181781
0.0018132
0.00181862
0.00181789
0.00181621
0.00181834
0.00182392
0.00182871
0.00188447
0.00194971
0.00199345
0.0012233
0.00130896
0.00123401
0.000998068
0.000892535
0.000827495
0.000727223
0.000652374
0.000644407
0.000583971
0.000550431
0.000526884
0.00181842
0.0018135
0.00181836
0.00181767
0.00181525
0.00181852
0.0018242
0.0018292
0.00188402
0.00195342
0.00199329
0.00114908
0.00132672
0.00125265
0.00101502
0.000930361
0.000802216
0.000720191
0.000651117
0.000646371
0.000650434
0.000594882
0.000631954
0.00181731
0.00181288
0.00181925
0.00181782
0.00181715
0.00181872
0.00182367
0.00182976
0.00188443
0.00194907
0.00198372
0.00108507
0.00134858
0.0012511
0.00105749
0.000945823
0.000789127
0.000735227
0.000706855
0.000768852
0.000729743
0.000715467
0.00104074
0.0018157
0.00181253
0.00181883
0.00181792
0.00181596
0.00181914
0.00182337
0.00183068
0.001884
0.0019608
0.00199074
0.00103563
0.00138625
0.0011452
0.00102958
0.000901867
0.000775735
0.000741642
0.000720089
0.00078346
0.000844765
0.00119725
0.00209352
0.00181435
0.00181284
0.00181841
0.00181764
0.00181613
0.00181833
0.00182343
0.00183138
0.00188597
0.00195833
0.00199427
0.000969392
0.00127095
0.00122718
0.00106292
0.000981117
0.000883477
0.000843384
0.000966222
0.00133367
0.00151356
0.00245196
0.00335908
0.00181729
0.00181273
0.00181823
0.00181876
0.00181701
0.00181787
0.00182309
0.00183139
0.00188539
0.00196255
0.00198959
0.000901186
0.00140683
0.000943687
0.00110553
0.000993001
0.000915829
0.000957842
0.00104718
0.00131685
0.00203308
0.00301649
0.00340248
0.00181509
0.00181335
0.00181897
0.00181743
0.00181536
0.00181868
0.00182343
0.00183224
0.00188526
0.00196243
0.00199234
0.000932183
0.00139136
0.00122207
0.0012558
0.00121887
0.00114631
0.00106108
0.00129981
0.00222358
0.00276541
0.00350463
0.0037152
0.00181704
0.00181214
0.0018173
0.00181726
0.00181604
0.00181861
0.00182299
0.00183258
0.0018862
0.00196431
0.0019885
0.000972967
0.00148798
0.00138539
0.00150998
0.00131111
0.00140743
0.0017205
0.00194182
0.00199526
0.00307637
0.00368927
0.00401958
0.00181465
0.00181368
0.0018183
0.00181716
0.00181592
0.0018177
0.00182396
0.00183204
0.00188608
0.00196093
0.00200078
0.000962206
0.0015598
0.00156799
0.00187138
0.00182145
0.00193368
0.0020414
0.00240706
0.00342116
0.00392452
0.00433619
0.00406152
0.00181677
0.00181252
0.00181741
0.0018172
0.00181629
0.00181881
0.00182439
0.00183234
0.0018887
0.00194857
0.00199794
0.000942801
0.00181898
0.00176343
0.00231804
0.00212708
0.00213801
0.00281862
0.00331659
0.00360809
0.00391877
0.00408747
0.00427819
0.00181508
0.00181332
0.00181707
0.00181672
0.00181482
0.00181918
0.00182493
0.00183193
0.00188737
0.00195906
0.0019988
0.000942189
0.00192594
0.00234947
0.00326401
0.00326016
0.00336569
0.00317658
0.00372039
0.00422233
0.00485067
0.00474354
0.00442335
0.00181535
0.00181227
0.00181398
0.0018165
0.00181432
0.00181902
0.00182489
0.00183257
0.00188647
0.00196075
0.00199469
0.000974113
0.00216387
0.00304924
0.00399799
0.00375765
0.00381366
0.00426668
0.00453532
0.00498312
0.00497377
0.00492781
0.00466117
0.00181824
0.00181295
0.00181351
0.00181581
0.00181479
0.00181969
0.00182438
0.00183228
0.00188824
0.00196203
0.00198938
0.00103092
0.00242231
0.00440966
0.00515298
0.00496929
0.00518911
0.00491401
0.00554128
0.00551308
0.00529989
0.00504139
0.00462868
0.0018163
0.00181265
0.00181285
0.0018145
0.00181342
0.00181808
0.00182453
0.00183168
0.0018889
0.00197912
0.00198214
0.00110408
0.00345016
0.00543162
0.00565954
0.00569998
0.00538217
0.00558134
0.00571833
0.0060883
0.00536581
0.00506981
0.00464774
0.00181659
0.00180993
0.00181295
0.00181433
0.00181403
0.00181833
0.00182395
0.0018323
0.00189007
0.00198506
0.00198359
0.00130147
0.00439863
0.00601545
0.00596305
0.00608488
0.00571082
0.00578677
0.00617721
0.00627557
0.00530433
0.00510361
0.00460821
0.00181738
0.00180853
0.00181382
0.00181263
0.00181475
0.00181684
0.00182327
0.00183136
0.00189099
0.0019909
0.00199037
0.00148087
0.00554601
0.00733725
0.00702592
0.00634641
0.00599281
0.0064639
0.00631537
0.00608151
0.00542479
0.00500888
0.0046701
0.00181833
0.00180643
0.00181621
0.00181343
0.00181676
0.00181674
0.0018228
0.00183196
0.00189065
0.00199656
0.00199949
0.00176962
0.00656936
0.00806716
0.00750864
0.00706331
0.00628204
0.00636521
0.00656922
0.00624876
0.00537876
0.00503513
0.00479509
0.00182079
0.00180966
0.00181637
0.0018154
0.00181632
0.00181595
0.00182266
0.00183142
0.00189274
0.00197958
0.00201384
0.0022521
0.0073395
0.00853592
0.00754965
0.00710526
0.00656533
0.00633804
0.00641706
0.00615785
0.00552344
0.00509156
0.00468915
0.00181734
0.00180857
0.00182013
0.00181703
0.00181707
0.00181656
0.00182217
0.00183153
0.00189035
0.00198743
0.00202357
0.00248646
0.00874848
0.00820913
0.00726173
0.00679601
0.00648091
0.00616385
0.00619017
0.0061194
0.00563494
0.00504034
0.00443059
0.00181334
0.0018138
0.00182128
0.00181842
0.00181465
0.00181829
0.00182183
0.0018319
0.00189958
0.00197409
0.00205612
0.00292374
0.0104697
0.00782035
0.00669984
0.00623473
0.00611224
0.00587545
0.00590345
0.00583268
0.00556586
0.00469453
0.00413131
0.00181191
0.00181422
0.00181898
0.00181908
0.00181367
0.00181931
0.00182341
0.00183232
0.00189348
0.00197352
0.00207483
0.00294155
0.0122839
0.00708339
0.0058255
0.00552565
0.00563425
0.0054519
0.00543706
0.00554624
0.0052181
0.00449192
0.00374327
0.00181111
0.00181258
0.0018169
0.00181856
0.00181403
0.00182106
0.00182423
0.0018325
0.00189462
0.00197626
0.0021201
0.00310571
0.0115318
0.00723208
0.00536282
0.00522525
0.00509355
0.00491656
0.00510041
0.00498065
0.00487045
0.00404467
0.00331132
0.00181356
0.00180898
0.00181574
0.00181887
0.0018151
0.00181897
0.00182348
0.00183219
0.00189255
0.00198033
0.00211938
0.00324126
0.00960224
0.00775877
0.0056917
0.00496743
0.00467097
0.00441677
0.0045678
0.00444801
0.00440972
0.0038357
0.00326134
0.00181596
0.00180741
0.0018164
0.00181528
0.0018169
0.00181605
0.00182333
0.00183157
0.00188736
0.00197996
0.00215398
0.00357841
0.00903637
0.0076297
0.00642376
0.00573028
0.00451996
0.00420773
0.00438126
0.00417221
0.00414767
0.00375798
0.0030174
0.00182101
0.00180778
0.00181327
0.0018129
0.00181597
0.00181549
0.00182323
0.00183119
0.0018825
0.00198343
0.00216939
0.00451306
0.00874469
0.00698994
0.00694508
0.00610266
0.00446133
0.00415789
0.0042042
0.00403729
0.00389209
0.00343985
0.00276756
0.00182067
0.00180447
0.0018155
0.0018154
0.00181773
0.00181625
0.00182402
0.00183113
0.00187848
0.00198287
0.002193
0.00458203
0.00794557
0.00761332
0.00632166
0.00557939
0.00422277
0.00406616
0.00415444
0.00373067
0.00337352
0.00307973
0.00240131
0.00181485
0.00180683
0.00182072
0.00181713
0.00181555
0.0018176
0.00182426
0.00183141
0.00187562
0.00198532
0.00230319
0.00597018
0.00905329
0.00828617
0.0060122
0.00536738
0.00413063
0.00388718
0.00367812
0.00334399
0.00293674
0.00253762
0.00200699
0.00181214
0.00181076
0.00181957
0.00181796
0.00181584
0.00181822
0.0018231
0.00183185
0.00187371
0.00200239
0.00241557
0.00787984
0.0114335
0.00868245
0.00578014
0.00475091
0.0037703
0.00347543
0.00325684
0.00300071
0.00271601
0.00225672
0.00197011
0.00181613
0.00181109
0.00182133
0.00182304
0.00181753
0.00181717
0.00182229
0.00183235
0.00186977
0.00197507
0.00261565
0.0110796
0.0111268
0.00794198
0.005505
0.00465942
0.00361507
0.00321971
0.00304006
0.00283172
0.00244272
0.00208115
0.00180828
0.00181195
0.00181172
0.00182249
0.00182072
0.00181796
0.00181565
0.00182173
0.00183277
0.00187706
0.00205832
0.00276524
0.0108371
0.0101064
0.00738746
0.00522394
0.00439176
0.00340285
0.00317
0.00301444
0.00268929
0.00233279
0.00200147
0.00156478
0.00181787
0.00181177
0.00182591
0.00181997
0.00181663
0.00181516
0.00182136
0.00183319
0.00187944
0.00206183
0.00311953
0.0121566
0.00895326
0.0069793
0.00532102
0.00419547
0.00350754
0.00327681
0.00291451
0.00252378
0.00210099
0.00181387
0.00136607
0.0018177
0.0018104
0.00182014
0.00181038
0.00181529
0.00181524
0.00182103
0.00183364
0.00187999
0.00205424
0.00320691
0.00942859
0.00834341
0.0069912
0.00515205
0.00418414
0.00355835
0.0032129
0.0028579
0.00252646
0.00219145
0.00183198
0.00140102
0.00181056
0.00180778
0.0018128
0.0018101
0.00181378
0.00181602
0.00182077
0.00183432
0.00188524
0.00224188
0.00450437
0.00971949
0.00817484
0.00670015
0.00504065
0.00407306
0.00362896
0.00320061
0.00286943
0.00254686
0.00222863
0.00178894
0.00140112
0.00180704
0.00180574
0.00181157
0.00181019
0.00181223
0.00181729
0.00182046
0.00183532
0.00188116
0.00219593
0.00447249
0.00896076
0.00832902
0.00645955
0.00524777
0.00429792
0.00366145
0.00323722
0.00294052
0.00275056
0.00247355
0.00203771
0.00148845
0.00180519
0.00180534
0.00181008
0.00181027
0.00181082
0.00181837
0.00182011
0.00183664
0.00188226
0.00221005
0.00351047
0.00777896
0.00771795
0.00664152
0.00518202
0.00442022
0.00365656
0.00325763
0.0030695
0.00293972
0.00268587
0.00214996
0.00161576
0.0018046
0.0018067
0.001808
0.00180998
0.00180936
0.00181866
0.00181966
0.00183825
0.00187948
0.0023716
0.00486129
0.00848344
0.00806298
0.00638876
0.00543449
0.00484804
0.00406673
0.00356567
0.00335158
0.00330614
0.00300515
0.0021581
0.00155202
0.00180465
0.00181163
0.00180543
0.00180947
0.00180776
0.00181788
0.00181914
0.00184006
0.00189194
0.002599
0.00523373
0.00849682
0.00864062
0.00666951
0.0060049
0.00555935
0.00488639
0.00434789
0.00401523
0.00376399
0.00313752
0.00212027
0.001671
0.00180469
0.0018154
0.00180219
0.00180846
0.00180599
0.00181615
0.0018185
0.00184158
0.0018928
0.00270734
0.00386515
0.00850828
0.00863151
0.00688956
0.00629752
0.00565424
0.00493692
0.00455854
0.00419125
0.0039825
0.00333507
0.00234928
0.00174679
0.00180402
0.00181503
0.0017989
0.00180727
0.00180445
0.00181372
0.00181778
0.0018426
0.00189416
0.00251404
0.00426093
0.00645317
0.00832389
0.00720748
0.00685423
0.00625612
0.00549987
0.00514173
0.00497505
0.00480696
0.00345005
0.00252659
0.00216406
0.00180241
0.0018112
0.00179621
0.00180566
0.00180304
0.00181087
0.00181683
0.00184282
0.00188887
0.00243954
0.00428138
0.00671193
0.0082307
0.00769183
0.00775791
0.00703002
0.00639453
0.0061934
0.00602452
0.00500952
0.00381939
0.00302563
0.00257623
0.00179978
0.00180501
0.0017942
0.00180385
0.0018019
0.00180782
0.00181562
0.00184287
0.00191884