/*--------------------------------*- C++ -*----------------------------------*\
  =========                 |
  \\      /  F ield         | OpenFOAM: The Open Source CFD Toolbox
   \\    /   O peration     | Website:  https://openfoam.org
    \\  /    A nd           | Version:  7
     \\/     M anipulation  |
\*---------------------------------------------------------------------------*/
FoamFile
{
    version     2.0;
    format      ascii;
    class       volScalarField;
    location    "50";
    object      omega;
}
// * * * * * * * * * * * * * * * * * * * * * * * * * * * * * * * * * * * * * //

dimensions      [0 0 -1 0 0 0 0];

internalField   nonuniform List<scalar> 
12842
(
3.13758
2.83133
2.65231
2.51419
2.42798
2.36133
2.31427
2.29011
2.26289
2.24819
2.24012
2.22968
2.23062
2.23723
2.25707
2.29377
2.36432
2.4648
2.59258
2.73885
2.91908
3.06524
3.27573
3.1159
2.80063
2.62157
2.5036
2.41938
2.35586
2.30735
2.27748
2.25558
2.24374
2.23378
2.22466
2.22592
2.23414
2.2554
2.29574
2.36641
2.47312
2.59498
2.74151
2.92037
3.0751
3.27776
3.09489
2.76368
2.5853
2.46537
2.40039
2.34228
2.30208
2.26996
2.24639
2.23966
2.23116
2.2223
2.2249
2.23687
2.26002
2.30054
2.36792
2.4873
2.62419
2.80249
2.9574
3.08514
3.28121
3.06013
2.733
2.556
2.44623
2.37885
2.32638
2.29319
2.26185
2.24119
2.23327
2.22494
2.2184
2.22252
2.23988
2.27197
2.32062
2.39255
2.50185
2.63215
2.82803
3.02122
3.15238
3.36662
3.02949
2.68687
2.51222
2.41
2.35512
2.30922
2.28197
2.25246
2.23725
2.22834
2.22167
2.21875
2.22384
2.23938
2.27277
2.32754
2.40581
2.54091
2.67968
2.85009
3.07209
3.26981
3.42662
2.99241
2.66321
2.49114
2.39043
2.33681
2.29704
2.27438
2.2451
2.23338
2.22602
2.21447
2.21767
2.23419
2.25785
2.29358
2.35477
2.45278
2.57592
2.72561
2.89444
3.16181
3.34091
3.67354
2.95633
2.61599
2.45224
2.36255
2.31233
2.28174
2.26298
2.23738
2.22914
2.21718
2.21585
2.22175
2.23501
2.26132
2.30255
2.36942
2.47024
2.65812
2.84492
3.03497
3.33528
3.6867
3.85531
2.92296
2.59512
2.43485
2.34806
2.29802
2.27095
2.25585
2.2318
2.22553
2.21712
2.21625
2.22964
2.25043
2.2862
2.33801
2.42573
2.5407
2.7076
2.90726
3.10051
3.41648
3.85411
4.24006
2.8852
2.55413
2.40334
2.32594
2.28073
2.25997
2.24639
2.22733
2.22375
2.21325
2.21989
2.23165
2.25384
2.29418
2.35206
2.45403
2.57616
2.78752
3.07276
3.30286
3.60284
4.14613
4.45523
2.848
2.53536
2.3891
2.31552
2.26998
2.25429
2.24026
2.22492
2.21961
2.21489
2.22785
2.24829
2.28179
2.33372
2.40045
2.51111
2.68131
2.89255
3.19318
3.46184
3.86008
4.52289
4.85705
2.80735
2.49789
2.36299
2.29694
2.25738
2.24534
2.23249
2.22144
2.21989
2.21606
2.23356
2.26091
2.29849
2.35544
2.44253
2.58018
2.75911
2.99807
3.3912
3.73946
4.22628
4.84718
5.2648
2.76836
2.47842
2.35151
2.28794
2.25035
2.24058
2.22794
2.21962
2.21558
2.22374
2.24494
2.28921
2.34496
2.42443
2.54147
2.68611
2.94279
3.235
3.63469
4.02542
4.57073
5.21044
5.7849
2.73101
2.44794
2.32939
2.27266
2.2395
2.23288
2.22084
2.21749
2.2138
2.22492
2.25466
2.30943
2.36832
2.45724
2.6056
2.80959
3.07865
3.36454
3.86509
4.30218
5.01704
5.70316
6.37344
2.69259
2.42792
2.31925
2.26515
2.23472
2.22903
2.21749
2.21534
2.21321
2.23226
2.27292
2.34621
2.43006
2.55268
2.74392
2.96437
3.30375
3.65028
4.1611
4.71784
5.47387
6.10332
6.80664
2.66211
2.40499
2.29982
2.25223
2.2263
2.22079
2.21197
2.21232
2.21219
2.23659
2.29357
2.37699
2.46403
2.59941
2.81164
3.09413
3.47187
3.87773
4.53368
5.09354
5.83687
6.50386
7.43632
2.63236
2.386
2.29081
2.24645
2.22241
2.21675
2.20923
2.21052
2.21737
2.2521
2.32758
2.4295
2.54887
2.72476
2.99188
3.31722
3.75778
4.1938
4.83087
5.45914
6.41383
7.28118
8.37369
2.60942
2.36839
2.27338
2.23589
2.21504
2.20889
2.20393
2.20689
2.21694
2.26904
2.36839
2.48011
2.60134
2.79298
3.08216
3.46909
3.95063
4.48464
5.27019
6.10828
7.09276
7.86394
8.89995
2.58656
2.35245
2.26518
2.23093
2.21125
2.20483
2.20151
2.21001
2.23188
2.304
2.423
2.55338
2.71431
2.95183
3.28835
3.7051
4.2613
4.90821
5.82055
6.65409
7.58982
8.61498
10.158
2.56873
2.33792
2.24962
2.2213
2.20382
2.19663
2.19569
2.2076
2.24546
2.33864
2.4841
2.62498
2.78779
3.04913
3.43445
3.99597
4.63729
5.34273
6.2463
7.2151
8.6154
10.156
11.5777
2.55115
2.32468
2.24239
2.21628
2.1996
2.19286
2.19574
2.22057
2.28646
2.39504
2.55778
2.71337
2.91238
3.23016
3.66971
4.18648
4.88797
5.7999
6.93725
8.41748
9.88911
11.1724
12.6059
2.53616
2.31348
2.22864
2.2071
2.19157
2.18547
2.19568
2.23056
2.31682
2.44478
2.63066
2.79962
3.00828
3.35808
3.86753
4.60303
5.44007
6.43184
7.94019
9.31892
10.6572
12.5627
15.101
2.52259
2.3014
2.22146
2.20002
2.18877
2.18691
2.20557
2.26804
2.37661
2.51813
2.71759
2.89441
3.12976
3.53841
4.11482
4.85373
5.8955
7.25011
8.68106
10.1877
12.338
15.6134
18.3626
2.50879
2.2919
2.20955
2.19343
2.18161
2.18306
2.21778
2.29887
2.41742
2.57556
2.79233
2.98481
3.2394
3.68719
4.35236
5.30746
6.42166
7.73849
9.47935
12.0384
15.0146
18.7052
22.8882
2.50066
2.2833
2.20062
2.18562
2.18393
2.19182
2.25288
2.35477
2.49329
2.66509
2.89147
3.08923
3.37332
3.90949
4.69525
5.71458
7.10268
8.6844
11.404
14.3022
17.7597
23.5045
33.9614
2.48879
2.27458
2.196
2.18138
2.18904
2.21135
2.29725
2.41101
2.5591
2.74158
2.97954
3.18732
3.48406
4.04428
4.87791
6.14363
7.76949
10.116
13.2157
16.5585
22.8301
37.0657
53.801
2.48274
2.26722
2.19034
2.18192
2.21185
2.24813
2.34763
2.47259
2.62552
2.81482
3.05809
3.2728
3.62334
4.31134
5.36053
6.82933
8.58893
11.6494
15.0497
21.3929
36.6117
57.2569
74.6475
2.47018
2.25822
2.18534
2.1865
2.24334
2.29277
2.40704
2.53644
2.69177
2.88638
3.13474
3.35806
3.73583
4.50046
5.66012
7.40325
9.83613
13.1809
20.1277
34.6974
55.5271
77.3014
91.816
2.46295
2.2532
2.18445
2.20692
2.2896
2.34555
2.46859
2.60179
2.75615
2.95208
3.19856
3.42436
3.84572
4.69164
6.1043
7.90105
10.8938
17.9222
32.1662
51.0328
73.0428
91.5672
102.901
2.44844
2.24478
2.18871
2.23721
2.33628
2.40405
2.53369
2.66502
2.81802
3.01467
3.26256
3.50642
4.01245
5.06735
6.67493
8.77871
14.8501
29.5079
47.7576
66.3062
85.4466
99.1146
108.501
2.43971
2.2415
2.20248
2.27722
2.39431
2.46413
2.59753
2.72692
2.87606
3.07037
3.31114
3.5527
4.09362
5.2444
7.06954
10.5506
23.9949
44.3595
60.8625
76.5239
91.8858
102.793
112.074
2.42443
2.23509
2.23198
2.32494
2.44733
2.52828
2.66043
2.78424
2.93006
3.12222
3.36419
3.63049
4.26814
5.74477
8.28776
16.0474
38.7325
56.4952
69.6808
81.8199
95.0269
104.438
112.131
2.41598
2.23329
2.26533
2.37485
2.50827
2.58777
2.71978
2.8383
2.9794
3.16757
3.40002
3.67166
4.40638
6.33775
10.2106
27.5902
50.4917
64.8886
73.402
84.1312
95.499
103.205
109.842
2.40315
2.23675
2.31362
2.42937
2.56254
2.65159
2.7744
2.88698
3.02407
3.20872
3.44407
3.75318
4.65156
7.08433
14.9748
39.1672
58.4492
68.1679
74.5935
84.1379
93.3808
98.4247
103.637
2.39815
2.2463
2.3589
2.48225
2.61831
2.70595
2.82545
2.93147
3.06394
3.24458
3.47024
3.80076
4.91151
9.1121
24.0583
51.2389
62.763
68.8461
74.7892
82.0444
87.9448
90.8544
94.8217
2.3898
2.27283
2.41331
2.53568
2.66984
2.76204
2.86896
2.97071
3.09917
3.27644
3.50904
3.91758
5.57024
11.3004
36.4773
56.1451
63.5006
68.8163
72.0798
75.685
79.7839
81.9966
85.0465
2.38902
2.30616
2.46432
2.58776
2.71787
2.81165
2.90971
3.0058
3.12999
3.30427
3.52931
4.00088
6.21812
16.2293
46.2458
60.1192
63.6589
65.9308
66.9148
69.6341
71.7615
73.3153
76.0323
2.39747
2.35181
2.51798
2.63539
2.76263
2.85624
2.94325
3.03621
3.15672
3.32876
3.56838
4.21748
7.96332
24.4011
52.864
60.335
62.5078
60.8401
60.9665
62.9498
64.333
65.311
68.133
2.41561
2.40058
2.56743
2.68519
2.80335
2.89801
2.97455
3.06341
3.17977
3.35044
3.59394
4.42011
9.98097
31.9955
55.7877
61.0517
58.8431
56.4944
55.6452
56.6261
57.2373
58.4886
61.6381
2.44126
2.45511
2.61884
2.72564
2.84142
2.93509
3.00031
3.08656
3.19959
3.36988
3.64387
4.86193
12.5539
37.0051
56.4935
61.3257
54.4722
52.3934
52.4983
51.2551
51.5542
52.5987
55.5133
2.47507
2.50907
2.66472
2.77135
2.87536
2.96727
3.02467
3.10762
3.21673
3.3872
3.68577
5.25552
14.3847
40.0714
56.7681
61.001
51.5722
47.9994
49.1276
46.6956
46.7858
47.4469
49.8614
2.51424
2.56365
2.71145
2.80721
2.90791
2.99657
3.04496
3.1254
3.23144
3.40438
3.75469
5.75583
16.6766
41.0621
54.9193
59.8502
49.0655
45.1193
45.8487
43.1774
42.982
43.2513
44.7824
2.55748
2.61536
2.75794
2.84593
2.93817
3.02017
3.06506
3.14203
3.24459
3.41837
3.80163
6.26463
18.0104
42.3112
53.1993
58.165
47.3764
42.599
42.6829
40.5711
40.1139
39.9944
40.6804
2.59561
2.66569
2.79877
2.87937
2.96532
3.04058
3.08147
3.15578
3.25567
3.4351
3.90574
6.86495
20.0423
42.6645
51.4584
55.1121
46.4081
40.7106
39.7877
38.5482
38.0041
37.705
37.8188
2.63798
2.71278
2.83328
2.91616
2.98894
3.05611
3.09866
3.16877
3.2664
3.44839
3.98188
7.45116
21.5148
42.7306
50.3773
52.3103
45.7013
39.5875
38.0344
37.3325
36.7681
36.2211
36.087
2.6703
2.75466
2.86335
2.9412
3.0072
3.06981
3.11354
3.17892
3.27514
3.46365
4.1068
7.99662
23.4099
42.9894
49.7181
47.6595
43.6167
38.8987
36.8312
36.4161
36.1152
35.5752
35.1519
2.70487
2.7932
2.89001
2.96471
3.02395
3.08073
3.12617
3.1891
3.28417
3.48184
4.23985
8.45589
25.2052
42.7045
47.769
43.1167
40.2632
37.8413
35.1498
34.8565
34.9332
34.9322
34.7324
2.72928
2.82424
2.91348
2.97985
3.03609
3.09014
3.13678
3.19662
3.29168
3.49783
4.32834
9.05328
25.4459
42.3565
44.0672
38.4278
36.4148
35.3202
32.7268
32.5021
32.5153
32.9676
33.4028
2.75586
2.85469
2.93363
2.9947
3.04881
3.09853
3.14529
3.2045
3.29921
3.51754
4.53203
9.76098
24.129
39.2711
37.6447
33.8053
32.6953
31.9626
30.0159
29.781
29.761
30.4306
31.4507
2.77408
2.87792
2.9477
3.00788
3.05832
3.10537
3.1518
3.21052
3.30583
3.5326
4.60611
9.6457
21.5865
35.457
30.8715
29.0549
29.1403
28.3448
26.8226
26.6839
26.6478
27.4618
28.6056
2.79933
2.90327
2.96117
3.02242
3.06816
3.11336
3.1577
3.21685
3.31199
3.55322
4.72807
9.10654
18.2916
28.2291
23.9561
23.7642
25.8469
24.729
23.9519
23.7779
23.7735
25.0286
26.4392
2.81655
2.92337
2.97135
3.03483
3.07633
3.11991
3.1607
3.22145
3.31689
3.56595
4.64112
8.24096
15.2642
21.5646
18.0116
19.1771
22.3408
21.5225
20.8088
20.8131
21.5608
23.0965
24.5878
2.83743
2.94347
2.98351
3.04777
3.08394
3.12799
3.16419
3.2261
3.32058
3.58255
4.4797
7.38351
12.708
14.7104
13.7404
15.5369
18.778
18.4854
18.2463
18.5125
19.8407
21.5431
23.1735
2.85445
2.96043
2.99624
3.0592
3.09165
3.13524
3.16644
3.23
3.32356
3.58188
4.29915
6.58677
10.8811
12.4473
11.0645
12.7043
15.5717
15.7783
15.9313
16.7412
18.5005
20.3274
21.7028
2.87471
2.97755
3.01029
3.07062
3.10035
3.14348
3.17012
3.23364
3.32518
3.57305
4.13867
5.93469
9.48086
10.8337
9.07064
10.8643
13.2477
13.6561
14.1985
15.5366
17.6333
19.4794
21.012
2.89374
2.99283
3.02542
3.08106
3.10953
3.15127
3.17368
3.23686
3.32688
3.55956
4.007
5.41111
8.44957
10.4206
8.34516
9.63527
11.5573
12.1337
12.9868
14.3214
16.5534
18.2304
19.8244
2.91361
3.00885
3.04038
3.09226
3.12002
3.15959
3.17827
3.24014
3.3278
3.54784
3.91798
5.0262
7.64035
10.0012
8.01318
8.95983
10.577
11.2307
12.3787
13.7232
15.7746
17.2456
18.8708
2.93205
3.02335
3.05376
3.1029
3.12959
3.16732
3.1829
3.24314
3.32864
3.53626
3.85678
4.74895
7.05997
9.21297
7.69962
8.55748
10.0072
10.7017
11.9461
13.2736
15.2396
16.4673
18.058
2.94961
3.0374
3.06613
3.11393
3.13899
3.17478
3.18784
3.2458
3.33082
3.52417
3.81106
4.5336
6.50156
8.22362
7.41174
8.27687
9.62671
10.3544
11.586
12.9158
14.6271
15.7129
17.2093
2.9676
3.05136
3.07775
3.12472
3.14813
3.18249
3.1933
3.24854
3.33139
3.51582
3.77433
4.36929
6.09108
7.56566
7.17713
8.08304
9.41026
10.0786
11.3037
12.8172
14.3
15.1674
16.5359
2.98484
3.06512
3.08896
3.13589
3.15684
3.18995
3.19918
3.2513
3.33448
3.50365
3.74531
4.247
5.83965
7.42892
7.12738
7.96107
9.20667
10.0464
11.1086
12.7615
14.1621
14.9621
16.146
3.00324
3.0787
3.10045
3.14662
3.1654
3.19743
3.20542
3.25408
3.33469
3.49095
3.718
4.1455
5.7074
7.32565
7.07893
7.93623
9.1358
10.0137
10.985
12.9284
14.0849
14.8581
15.885
3.02015
3.0928
3.11124
3.15688
3.17383
3.2049
3.212
3.25703
3.33518
3.48226
3.69555
4.08301
5.63911
7.25009
7.03408
7.90916
9.08617
9.98165
10.8625
13.0489
14.1016
15.0255
15.8962
3.03794
3.10559
3.12281
3.16726
3.18158
3.21202
3.21878
3.26012
3.33489
3.47424
3.67269
4.00493
5.6008
7.17255
6.99012
7.88784
9.0905
9.92983
10.8234
13.1337
14.1569
15.3472
16.0866
3.05445
3.11964
3.13443
3.17654
3.19011
3.21913
3.22561
3.26339
3.33264
3.47441
3.65256
3.97051
5.56936
7.19405
7.06858
7.9572
9.07992
9.92402
10.8083
13.1222
14.2879
15.6652
16.627
3.07138
3.13256
3.14531
3.18634
3.19766
3.22625
3.23259
3.26687
3.33345
3.47311
3.63266
3.95193
5.52245
7.24175
7.80178
8.15136
9.05022
9.97376
10.8079
13.1023
14.4134
15.8423
17.1327
3.08701
3.14488
3.15752
3.19512
3.20541
3.23257
3.23948
3.27051
3.33154
3.47075
3.60983
3.92405
5.55002
7.26371
8.3991
8.38198
9.05452
10.0878
10.8458
13.2173
14.5892
16.2569
17.501
3.10303
3.15785
3.16815
3.20423
3.21372
3.23952
3.24596
3.27428
3.33236
3.47022
3.6035
3.92806
5.53737
7.2977
8.77761
8.54614
9.0574
10.2089
11.0021
13.4199
14.7709
16.2938
17.6821
3.11862
3.1692
3.17948
3.21279
3.22057
3.24542
3.25294
3.2781
3.33168
3.46591
3.59727
3.92941
5.60073
7.34487
8.96942
8.66566
9.24178
10.3982
11.2546
13.6054
14.9666
16.3631
17.775
3.13248
3.18036
3.19023
3.2215
3.22883
3.25187
3.25886
3.28214
3.33105
3.46796
3.58314
3.91941
5.67188
7.43322
9.02889
8.73772
9.28371
10.6486
11.6883
14.0281
15.1765
16.4073
17.7261
3.14909
3.19157
3.20172
3.22972
3.23652
3.25745
3.26542
3.28573
3.33107
3.46798
3.57576
3.91932
6.31808
7.70228
9.02938
8.84068
9.3869
10.7471
12.0808
14.1931
15.1608
16.4117
17.7157
3.16182
3.20452
3.21148
3.23885
3.24419
3.26451
3.27125
3.28992
3.33038
3.46782
3.57157
3.96615
7.00184
7.90401
9.05037
9.22735
9.67664
10.9361
12.7062
14.377
15.301
16.6142
17.8825
3.17861
3.21029
3.22239
3.24586
3.25169
3.26989
3.2783
3.29335
3.33072
3.46591
3.57702
3.98978
7.64529
8.09018
9.03915
9.47081
10.2179
11.1388
12.8589
14.3977
15.3142
16.625
17.9468
3.1885
3.21346
3.22871
3.2507
3.25652
3.27341
3.28233
3.29721
3.33183
3.47146
3.57361
4.02313
8.03575
8.17934
9.07684
9.68495
10.7527
11.9183
13.4895
14.7223
15.6771
17.1738
18.4467
3.19579
3.2175
3.2324
3.25083
3.26142
3.27535
3.28564
3.30068
3.33357
3.47178
3.56994
4.03085
8.14779
8.24871
9.16266
9.91265
11.1848
12.2102
13.8248
14.8243
15.7213
17.2102
18.5266
3.19484
3.21775
3.23332
3.25165
3.26139
3.27612
3.28495
3.30479
3.33531
3.47401
3.58103
4.09887
8.18011
8.30345
9.5041
10.0495
11.6654
12.9981
14.5744
15.3891
16.2646
17.7376
19.2153
3.19545
3.21865
3.23374
3.25307
3.26373
3.27663
3.28559
3.30618
3.33737
3.47
3.58227
4.07853
7.97801
8.27895
9.74808
10.7968
12.2262
13.3495
14.8575
15.6022
16.4066
17.9906
19.7677
3.19696
3.22019
3.23387
3.25394
3.26242
3.27617
3.28581
3.30711
3.3389
3.47583
3.58405
4.02852
7.54794
8.30827
9.88324
11.1662
13.1801
14.28
15.4013
16.1798
17.013
18.6751
22.6876
3.19962
3.22066
3.23614
3.25431
3.26285
3.27583
3.28636
3.30725
3.34128
3.47407
3.58546
4.06501
7.37613
8.42504
10.4121
11.971
13.7282
14.5932
15.683
16.5601
18.0161
22.2556
28.9872
3.20171
3.22169
3.23449
3.25487
3.26268
3.27559
3.28635
3.30742
3.34254
3.48223
3.57801
4.03851
7.19762
8.85241
11.1942
12.9567
14.4697
15.4535
16.1667
17.362
20.5889
27.3295
38.7969
3.19902
3.22161
3.23447
3.25458
3.26292
3.27665
3.28697
3.30869
3.34508
3.48397
3.58991
4.03317
7.19866
9.49347
11.7215
13.7285
14.8547
16.0931
17.4337
19.8559
25.2845
35.9677
53.6116
3.20056
3.22205
3.23436
3.25468
3.26402
3.27489
3.28678
3.30781
3.34675
3.4851
3.5918
4.04105
7.22506
11.0324
12.4943
15.2736
16.7194
17.2006
19.3261
22.4203
30.8633
47.1434
69.0354
3.19706
3.22362
3.23704
3.25593
3.26189
3.27499
3.2875
3.30776
3.34935
3.48803
3.59525
4.05642
7.24172
12.1353
13.6972
17.42
18.7948
20.5429
24.6764
31.8689
43.0942
65.7519
91.3859
3.19997
3.22134
3.23467
3.25665
3.26174
3.27592
3.28585
3.30856
3.35202
3.49485
3.59781
4.0688
7.24464
13.0022
15.4466
18.8946
20.4226
22.1997
27.8391
35.8055
53.9068
81.4819
117.149
3.1965
3.22022
3.23401
3.25386
3.26151
3.27388
3.2856
3.30815
3.35337
3.49792
3.59983
4.09452
7.73497
16.0021
20.5229
21.9144
24.3785
27.7005
34.2856
48.1118
70.3316
106.776
135.112
3.19476
3.21952
3.23351
3.25413
3.26138
3.2737
3.28519
3.30862
3.35615
3.50112
3.60258
4.1169
8.00588
20.0877
25.4122
25.5817
28.1626
32.8742
42.4481
57.901
84.2464
120.059
144.729
3.19449
3.22161
3.23494
3.2535
3.26183
3.27424
3.28486
3.30721
3.35768
3.50084
3.60965
4.16377
9.93602
23.2486
30.9906
31.8231
35.6063
42.7385
52.9904
73.1097
105.933
127.155
146.181
3.19299
3.21783
3.23492
3.25337
3.26129
3.27177
3.28502
3.3071
3.35911
3.50376
3.61132
4.23113
12.3682
25.7644
34.8679
36.975
41.0927
49.9851
63.7913
90.9532
117.033
131.085
147.591
3.19251
3.21797
3.2342
3.25442
3.26045
3.27411
3.2827
3.30767
3.36034
3.49296
3.6166
4.31003
16.7686
31.2824
38.7852
42.0637
47.6448
57.9025
79.0373
100.298
122.437
138.255
149.903
3.195
3.22075
3.23264
3.25456
3.25881
3.27186
3.28245
3.30623
3.36182
3.50333
3.6288
4.52564
22.2311
38.306
43.949
48.6296
56.1169
70.629
89.2591
105.611
127.751
138.83
152.815
3.19414
3.21989
3.22985
3.25349
3.25793
3.27329
3.28352
3.30777
3.36292
3.49814
3.64181
4.74341
26.0286
42.3764
47.5318
54.0237
62.4315
73.7144
90.7799
110.749
127.38
141.52
151.903
3.19048
3.21731
3.22711
3.25164
3.25464
3.27314
3.28287
3.30649
3.36555
3.49755
3.67424
5.0669
27.6407
43.8963
49.2874
55.5653
65.1423
75.8664
92.1709
109.725
130.42
141.523
143.844
3.18341
3.21459
3.22492
3.24904
3.2542
3.27115
3.28278
3.3074
3.36828
3.50355
3.70025
5.59542
29.0187
44.4318
50.7388
56.7219
65.2235
77.5874
93.4276
112.513
128.464
135.057
132.425
3.18189
3.21125
3.21949
3.24708
3.25011
3.26959
3.28172
3.30707
3.37141
3.50699
3.73891
5.90673
31.516
43.8445
50.0664
57.1065
65.3366
79.9121
94.8539
109.342
118.984
122.866
118.823
3.18347
3.20455
3.21856
3.24281
3.24958
3.26745
3.27933
3.30651
3.37247
3.51528
3.76138
6.52112
36.8305
43.2913
49.2157
57.0662
63.9366
77.5019
89.9422
100.092
106.277
110.978
104.216
3.18279
3.20324
3.21979
3.23949
3.25059
3.2658
3.27578
3.30521
3.3789
3.52009
3.80929
7.32059
39.045
42.5872
47.977
55.706
60.9583
71.9244
81.693
89.5191
94.7245
95.0821
93.1774
3.17506
3.20394
3.21997
3.23662
3.25096
3.26136
3.275
3.30494
3.37766
3.5316
3.86544
8.2703
39.5913
41.3564
46.7563
51.9567
57.8314
65.8421
71.4062
77.3242
80.3596
83.1388
80.9324
3.16925
3.20348
3.21818
3.2303
3.24826
3.25995
3.27523
3.30332
3.37592
3.53036
3.90206
8.59137
33.1535
36.1096
41.4283
47.6054
53.8722
59.4004
62.3822
67.2344
71.0784
70.0861
67.0455
3.16642
3.201
3.21036
3.22859
3.24115
3.26068
3.27262
3.30039
3.3709
3.52521
3.88479
8.73762
31.3918
31.9867
38.2255
45.0813
51.0757
53.8373
55.1347
58.5382
60.5031
59.9108
60.4777
3.15634
3.19404
3.20583
3.23005
3.23815
3.25732
3.26912
3.29678
3.36588
3.52409
3.92223
9.71083
30.9339
31.1755
38.0443
42.4182
46.8756
47.7457
48.7765
50.9123
52.609
52.8857
50.4479
3.15329
3.18763
3.19861
3.22653
3.23054
3.2527
3.26371
3.29315
3.3621
3.52385
3.91134
10.7982
30.0006
31.3977
38.4862
40.626
43.7227
42.7718
42.3445
44.0977
45.9032
43.9895
43.0766
3.15396
3.1795
3.1904
3.21909
3.23082
3.24634
3.25816
3.28841
3.3584
3.53077
3.93185
10.9197
26.0814
34.7666
36.9034
37.3483
38.3123
37.1133
38.2614
38.5185
39.7083
38.5368
38.603
3.14871
3.17364
3.18752
3.20913
3.2256
3.23882
3.25472
3.28344
3.35543
3.52984
4.00182
10.9476
20.5246
32.7344
34.2362
35.0167
34.4205
33.4758
34.0535
33.9873
33.958
34.8095
33.2789
3.12927
3.16652
3.17699
3.19216
3.21602
3.2316
3.24919
3.27716
3.35213
3.58373
4.09908
10.0943
24.2457
31.6732
31.3955
30.8326
29.7682
30.0429
30.297
30.235
31.4726
31.5482
28.9061
3.12131
3.15555
3.16138
3.18436
3.20736
3.22631
3.24279
3.27111
3.34939
3.59671
4.12741
11.8023
25.776
29.6923
28.0018
27.1182
27.2812
27.1941
27.3797
28.6128
29.4764
28.1193
25.9515
3.09465
3.14219
3.13981
3.16914
3.19802
3.21765
3.23379
3.26341
3.3463
3.63362
4.27072
14.2459
25.9266
25.9275
24.4271
24.2675
24.0796
24.5305
26.1038
27.3307
27.3666
25.6667
23.7936
3.08399
3.12985
3.13183
3.16958
3.18819
3.2073
3.22412
3.25604
3.34331
3.65275
4.50074
16.6243
24.5018
22.5861
21.9501
21.9667
22.1863
23.7109
25.2118
25.9178
25.5763
24.0618
22.2946
3.08146
3.11739
3.13083
3.15913
3.17478
3.19205
3.21106
3.24615
3.33968
3.71671
4.99173
17.8748
21.4211
20.1154
19.6462
20.3445
21.17
23.0546
24.188
24.6758
24.0558
22.8405
20.8483
3.06773
3.09937
3.11917
3.14485
3.16002
3.17477
3.19743
3.23666
3.33484
3.66981
5.06377
15.0352
17.9979
17.1489
18.1053
19.176
20.3748
22.196
23.2458
23.3526
22.7452
21.6804
19.6397
3.0464
3.07445
3.10064
3.12461
3.14043
3.15292
3.17938
3.2234
3.32704
3.82537
5.62496
11.5951
15.8464
15.1124
17.0816
18.3382
19.7857
21.5151
22.2734
22.2699
21.8847
20.7033
18.5896
3.0216
3.04741
3.0798
3.10256
3.1196
3.13122
3.16092
3.21046
3.31625
3.78964
5.48043
10.5641
13.5068
14.177
16.4116
17.6661
19.2532
20.9013
21.4615
21.3561
21.1353
19.8139
17.507
2.98999
3.0101
3.05231
3.07415
3.09253
3.10477
3.13642
3.19148
3.29682
3.77983
5.40791
9.58611
11.6025
13.5871
15.7933
17.0996
18.7675
20.2889
20.6115
20.6215
20.0637
18.741
16.063
2.95652
2.97378
3.02316
3.0446
3.06438
3.07875
3.11157
3.17216
3.27403
3.73538
5.83164
8.50373
10.7747
13.2067
15.2238
16.6024
18.4137
19.6754
19.8755
19.6699
19.1237
17.2175
14.3536
2.91621
2.93537
2.98586
3.00706
3.02799
3.04507
3.07816
3.14334
3.25016
4.05338
5.75908
8.52196
10.3061
12.866
14.6403
16.2025
17.9604
18.7697
18.9446
18.5695
17.8266
15.4374
12.0027
2.87531
2.90038
2.94737
2.96878
2.99103
3.01123
3.04467
3.11378
3.22464
4.12808
5.61227
8.22049
9.87415
12.4545
14.0946
15.8148
17.4792
17.9146
18.0676
17.5144
15.9345
12.9557
9.42309
2.8257
2.85747
2.89878
2.91978
2.94324
2.9659
2.99936
3.07081
3.19307
4.25123
5.63886
7.53258
9.58497
11.9634
13.6284
15.4221
16.6538
16.8019
16.7734
15.9496
13.7476
10.3079
6.50472
2.77606
2.81432
2.8501
2.87094
2.89618
2.92094
2.95519
3.02845
3.16711
4.36076
5.79821
7.30866
9.26168
11.5912
13.1941
15.0148
15.6189
15.621
15.339
14.2548
11.2769
7.32192
4.61278
2.71459
2.75718
2.78833
2.80809
2.83474
2.86023
2.89503
2.96853
3.12323
4.21376
6.0212
7.1207
8.9438
10.9616
12.8469
14.3504
14.582
14.6484
14.1026
12.1763
8.57212
4.87975
3.80218
2.65448
2.70047
2.72835
2.74805
2.77643
2.80235
2.83889
2.91251
3.0798
4.04848
6.56248
6.97293
8.57201
10.623
12.5132
13.4795
13.5573
13.5511
12.4464
9.83078
5.80064
3.77166
3.37592
2.57859
2.62536
2.65082
2.66962
2.69841
2.7233
2.76097
2.83441
3.05898
4.8718
6.65186
6.926
8.14925
10.1356
11.9988
12.3684
12.3503
12.1893
10.5821
7.25099
3.97165
3.2794
3.11664
2.50758
2.55545
2.57914
2.59877
2.62808
2.65239
2.69255
2.76478
3.02624
5.01863
6.66707
6.45836
8.24533
9.94132
11.1775
11.3286
11.323
10.6612
8.42749
4.80181
3.25117
3.01317
2.94548
2.41539
2.46144
2.48328
2.50224
2.52999
2.55237
2.59395
2.66646
3.03362
5.83906
7.26481
6.36962
7.88871
9.4766
10.2168
10.2778
10.1999
8.90185
6.00887
3.40633
2.91108
2.82863
2.80193
2.33542
2.38162
2.40148
2.42169
2.44866
2.47045
2.51475
2.58332
3.1005
6.48032
7.88901
6.6149
7.72803
8.94979
9.41269
9.4319
8.89436
7.00613
3.96409
2.88428
2.72985
2.70079
2.69024
2.22558
2.26811
2.28441
2.3032
2.32682
2.34676
2.39369
2.45929
2.91551
6.7985
8.09804
6.28334
7.66384
8.38716
8.43375
8.36773
7.17745
4.78855
2.91949
2.602
2.55754
2.54701
2.54167
2.14276
2.18409
2.19738
2.21713
2.23938
2.25933
2.30658
2.37485
3.77026
7.62728
7.09885
6.4193
7.34607
7.70334
7.73099
7.06648
5.40656
3.15023
2.53476
2.44776
2.43768
2.4395
2.45093
2.01481
2.04558
2.05469
2.07144
2.08877
2.10812
2.1671
2.28603
4.58611
8.83747
7.04112
6.4354
6.94409
6.82262
6.4939
5.55502
3.55156
2.45106
2.28335
2.26767
2.27237
2.27517
2.27758
1.9405
1.96808
1.9749
1.99161
2.008
2.02784
2.08122
2.34999
5.01792
8.68178
5.8424
6.2437
6.5283
6.19573
5.65331
4.09223
2.56522
2.23057
2.1868
2.18124
2.18826
2.19821
2.19999
1.77317
1.78067
1.78193
1.79322
1.80478
1.83443
1.95166
2.56519
6.19867
7.18252
4.92652
5.37121
4.95077
4.40382
3.44246
2.35157
1.98261
1.93112
1.92889
1.94822
1.95081
1.95233
1.96685
3.10083
2.78604
2.60262
2.47404
2.39764
2.33781
2.30053
2.27498
2.25449
2.24366
2.23306
2.23573
2.24524
2.26618
2.30524
2.3677
2.46059
2.6074
2.73917
2.87658
3.06676
3.25987
3.35708
3.11085
2.79597
2.60872
2.48369
2.40424
2.34339
2.30715
2.28081
2.25718
2.24727
2.23582
2.23643
2.24376
2.26433
2.30331
2.36497
2.45641
2.59069
2.72272
2.87183
3.05492
3.20897
3.31736
3.12081
2.8101
2.62739
2.49508
2.41236
2.35609
2.31368
2.28479
2.25984
2.25045
2.23724
2.23698
2.24384
2.26202
2.29717
2.3539
2.44009
2.56567
2.7051
2.83529
3.03518
3.17933
3.30302
3.1326
2.82652
2.63369
2.50415
2.42109
2.36367
2.3181
2.29146
2.26566
2.25183
2.23866
2.23649
2.24188
2.25694
2.28718
2.33895
2.41955
2.54263
2.66795
2.8074
2.99696
3.12127
3.26307
3.14339
2.83454
2.64863
2.52132
2.43563
2.37536
2.32603
2.29624
2.26805
2.25171
2.24053
2.23501
2.23896
2.2517
2.27875
2.326
2.40166
2.51317
2.63913
2.77293
2.95719
3.07729
3.25756
3.14905
2.84904
2.66062
2.53072
2.43986
2.37798
2.32749
2.2968
2.26963
2.25115
2.24149
2.23373
2.23588
2.24454
2.26537
2.30211
2.36578
2.46514
2.57259
2.70735
2.87765
2.99777
3.18992
3.15334
2.85454
2.66482
2.53562
2.44353
2.38283
2.33192
2.30085
2.2734
2.2537
2.24368
2.23377
2.23532
2.24192
2.26032
2.28952
2.35455
2.44224
2.55332
2.66816
2.84289
2.96944
3.15648
3.14884
2.84974
2.65601
2.5251
2.43374
2.37315
2.32696
2.29715
2.26952
2.2517
2.24178
2.23107
2.23242
2.23943
2.26051
2.29406
2.36645
2.45966
2.57478
2.71985
2.89196
3.0303
3.23308
2.96754
2.63105
2.46944
2.36755
2.3131
2.27228
2.25114
2.23188
2.21237
2.21579
2.23015
2.26332
2.34041
2.46112
2.65769
2.88175
3.23635
3.60516
4.14532
4.74089
5.298
5.87524
6.64284
2.97832
2.63791
2.47332
2.37554
2.31638
2.27651
2.25317
2.23553
2.21549
2.2122
2.21983
2.24074
2.29222
2.39516
2.57457
2.78492
3.12077
3.46984
3.99059
4.56629
5.11535
5.65641
6.42398
2.97994
2.64111
2.47798
2.38398
2.3196
2.27868
2.25566
2.23839
2.2175
2.21449
2.22072
2.23897
2.27835
2.3565
2.49979
2.69194
3.00391
3.33275
3.82396
4.37379
4.88079
5.41822
6.13342
2.9914
2.6498
2.4816
2.38896
2.32342
2.28303
2.25858
2.24165
2.22239
2.21756
2.22289
2.23884
2.27241
2.33817
2.4594
2.63462
2.91596
3.22513
3.6787
4.19714
4.67279
5.18856
5.85888
2.99389
2.65579
2.4882
2.39727
2.32697
2.28533
2.26038
2.24302
2.22574
2.22006
2.22431
2.23693
2.26376
2.31507
2.40782
2.55803
2.80879
3.09148
3.50843
3.99194
4.40266
4.92299
5.55068
3.00614
2.6657
2.49211
2.40217
2.33221
2.29014
2.26387
2.24469
2.23012
2.22337
2.227
2.23717
2.26229
2.31071
2.3948
2.52688
2.74415
3.00048
3.3699
3.81476
4.16177
4.71894
5.25701
3.00949
2.6738
2.50032
2.40807
2.33636
2.29261
2.26605
2.24557
2.23236
2.22486
2.22798
2.23722
2.25873
2.29983
2.36977
2.48413
2.67341
2.90121
3.22738
3.63126
3.95397
4.49885
4.93073
3.02264
2.68535
2.50749
2.41459
2.34311
2.29787
2.27045
2.24699
2.23587
2.22748
2.22939
2.23716
2.25747
2.2965
2.3616
2.46382
2.62843
2.83319
3.10833
3.47168
3.76209
4.25359
4.59718
3.02674
2.69466
2.51608
2.41864
2.3477
2.30051
2.27313
2.24817
2.23747
2.22893
2.23014
2.23717
2.25524
2.29033
2.34979
2.44325
2.58969
2.77108
3.01054
3.34391
3.60192
4.01309
4.32782
3.04104
2.70835
2.52766
2.42681
2.35595
2.30641
2.27809
2.25058
2.24056
2.23124
2.23148
2.23755
2.25432
2.28688
2.34203
2.42852
2.565
2.72696
2.94946
3.23255
3.43771
3.76671
4.08233
3.0458
2.71815
2.53671
2.43098
2.36079
2.30935
2.28039
2.2529
2.24256
2.23316
2.23226
2.23747
2.25342
2.28393
2.33639
2.41919
2.54454
2.69518
2.9126
3.13862
3.3393
3.64064
3.93301
3.06155
2.73375
2.55164
2.44004
2.37009
2.31608
2.28527
2.25703
2.24463
2.23497
2.23285
2.23684
2.25193
2.28059
2.32989
2.40751
2.52597
2.67759
2.87755
3.10947
3.27295
3.52694
3.79058
3.06688
2.74398
2.56123
2.4464
2.37586
2.31934
2.28763
2.2601
2.24747
2.23745
2.23257
2.23668
2.25113
2.27961
2.32775
2.40342
2.51397
2.66142
2.87342
3.04511
3.21405
3.5108
3.74635
3.0824
2.75996
2.57754
2.45556
2.38454
2.32636
2.29193
2.26508
2.24908
2.23898
2.23227
2.23671
2.25002
2.27667
2.32198
2.39373
2.49914
2.6538
2.82642
3.00451
3.16493
3.45359
3.65643
3.08925
2.77191
2.58726
2.46449
2.39177
2.32953
2.29549
2.26912
2.2522
2.24202
2.23254
2.23618
2.24871
2.27347
2.31574
2.38229
2.48059
2.62064
2.79452
2.91399
3.07197
3.3747
3.44847
2.89404
2.78788
2.85761
2.94061
3.02923
3.07403
3.10145
3.13621
3.15653
3.18301
3.21978
3.27891
3.3646
3.507
3.72969
4.06736
4.5421
5.04243
5.65079
6.19003
6.58484
6.95333
7.318
2.88731
2.75462
2.82472
2.90509
3.0002
3.0488
3.08473
3.12735
3.1541
3.17669
3.21896
3.27578
3.36148
3.5035
3.72441
4.05147
4.53135
5.02663
5.65007
6.19237
6.60323
6.99334
7.36744
2.87836
2.71511
2.78551
2.86709
2.96865
3.02257
3.06075
3.10802
3.15318
3.17375
3.21868
3.27244
3.35721
3.49857
3.71581
4.03061
4.51451
5.00637
5.64805
6.19542
6.62542
7.05956
7.42914
2.87738
2.67994
2.74268
2.82586
2.93395
2.99397
3.04032
3.09197
3.14028
3.17127
3.21229
3.26766
3.35288
3.49335
3.70765
4.01915
4.49331
4.98289
5.64422
6.1994
6.66579
7.15472
7.53065
2.87858
2.64707
2.70323
2.78463
2.89513
2.95515
3.01529
3.07304
3.12426
3.16161
3.20801
3.26181
3.34779
3.48773
3.70112
4.00789
4.47321
4.96118
5.63895
6.19891
6.71132
7.24381
7.61164
2.88334
2.62022
2.65936
2.73445
2.85226
2.92101
2.98345
3.04439
3.10652
3.15024
3.19699
3.25325
3.34138
3.4806
3.69078
3.99179
4.452
4.93142
5.63128
6.20046
6.75212
7.3403
7.69998
2.88823
2.59144
2.61404
2.69005
2.80137
2.87165
2.95428
3.01954
3.08351
3.1367
3.18236
3.24306
3.33353
3.47212
3.68042
3.97895
4.42625
4.90746
5.60887
6.19072
6.81695
7.41131
7.78308
2.8959
2.57548
2.57237
2.63469
2.74851
2.82371
2.91232
2.98287
3.05837
3.11424
3.16146
3.22748
3.32224
3.46102
3.66809
3.96302
4.40633
4.87915
5.57703
6.18935
6.84833
7.45784
7.87624
2.90145
2.55895
2.52743
2.58387
2.68608
2.76739
2.86961
2.93914
3.02657
3.08494
3.13911
3.20814
3.30793
3.44747
3.65286
3.94438
4.37925
4.85122
5.54329
6.16919
6.85039
7.51138
7.97972
2.90673
2.55542
2.49047
2.52857
2.62333
2.70711
2.81756
2.89603
2.98599
3.05085
3.10866
3.18358
3.28926
3.43003
3.63587
3.92486
4.36034
4.83059
5.49816
6.15044
6.85716
7.51591
8.05707
2.90977
2.55709
2.45689
2.47563
2.55549
2.64496
2.76123
2.83376
2.94106
3.01262
3.07543
3.15345
3.26626
3.40902
3.61454
3.90038
4.32369
4.79574
5.46023
6.11874
6.84311
7.51427
8.08194
2.91227
2.56234
2.43142
2.42747
2.49173
2.58058
2.69702
2.77757
2.88556