/*--------------------------------*- C++ -*----------------------------------*\
  =========                 |
  \\      /  F ield         | OpenFOAM: The Open Source CFD Toolbox
   \\    /   O peration     | Website:  https://openfoam.org
    \\  /    A nd           | Version:  7
     \\/     M anipulation  |
\*---------------------------------------------------------------------------*/
FoamFile
{
    version     2.0;
    format      ascii;
    class       volScalarField;
    location    "50";
    object      p;
}
// * * * * * * * * * * * * * * * * * * * * * * * * * * * * * * * * * * * * * //

dimensions      [0 2 -2 0 0 0 0];

internalField   nonuniform List<scalar> 
12842
(
1.27937
1.39534
1.59823
1.96411
2.46472
3.06275
3.73837
4.47385
5.24141
6.0045
6.72542
7.37468
7.94162
8.44449
8.93451
9.48397
10.1608
11.0002
11.9866
13.0566
14.1176
15.0838
15.8891
1.20546
1.33969
1.54343
1.93015
2.44858
3.05068
3.71035
4.39654
5.06323
5.65686
6.12932
6.45077
6.62218
6.6865
6.73381
6.88254
7.23957
7.85871
8.7187
9.73411
10.7866
11.767
12.6144
1.12415
1.26836
1.48356
1.89389
2.42679
3.03059
3.67403
4.3114
4.87738
5.30256
5.53186
5.53875
5.33846
4.99752
4.64221
4.43206
4.50307
4.91465
5.63146
6.54547
7.52588
8.44869
9.27568
1.03206
1.18755
1.42022
1.85401
2.39933
3.00669
3.6386
4.23218
4.70111
4.9606
4.95156
4.65439
4.10054
3.37848
2.64781
2.10511
1.90693
2.10838
2.65596
3.42443
4.28132
5.10063
5.8693
0.930407
1.10906
1.35664
1.81233
2.36743
2.98058
3.60502
4.15805
4.53017
4.62178
4.37344
3.77629
2.88222
1.7971
0.710355
-0.148025
-0.608516
-0.627337
-0.275536
0.311512
1.01265
1.70128
2.39284
0.824845
1.04147
1.29453
1.77212
2.33368
2.95521
3.57546
4.09015
4.36479
4.28595
3.79859
2.90934
1.69446
0.269867
-1.1514
-2.31093
-3.03289
-3.28838
-3.16054
-2.78604
-2.26772
-1.73098
-1.13534
0.721371
0.987407
1.23493
1.73743
2.30301
2.93868
3.56059
4.04299
4.22418
3.97735
3.25731
2.08944
0.581982
-1.15327
-2.88849
-4.34122
-5.33381
-5.85103
-5.97938
-5.85228
-5.54651
-5.19264
-4.71172
0.625884
0.945544
1.17675
1.70587
2.27047
2.92432
3.55101
4.00705
4.10229
3.69727
2.76213
1.34238
-0.415207
-2.422
-4.44715
-6.1888
-7.46838
-8.27956
-8.69665
-8.8432
-8.77194
-8.62808
-8.28397
0.529485
0.911504
1.12672
1.69142
2.26439
2.95615
3.60932
4.06805
4.11158
3.58462
2.47493
0.842944
-1.11444
-3.34729
-5.62934
-7.64174
-9.20142
-10.3014
-10.9978
-11.4087
-11.5572
-11.6376
-11.428
0.43705
0.881429
1.08614
1.69167
2.28326
3.02578
3.71886
4.19882
4.21555
3.59661
2.34674
0.535102
-1.59145
-4.02296
-6.53754
-8.8
-10.6254
-12.0011
-12.9649
-13.6292
-13.997
-14.2732
-14.225
0.361734
0.857452
1.05414
1.69481
2.30632
3.09885
3.8294
4.32919
4.31856
3.60569
2.21424
0.216701
-2.083
-4.71839
-7.47358
-9.99983
-12.115
-13.7992
-15.061
-15.9986
-16.6045
-17.0877
-17.2222
0.302993
0.836684
1.02909
1.69663
2.32837
3.16554
3.92746
4.44174
4.4007
3.59196
2.06151
-0.117515
-2.57938
-5.40479
-8.39122
-11.1816
-13.5933
-15.5949
-17.1623
-18.3728
-19.2223
-19.9322
-20.2756
0.256736
0.816055
1.00813
1.69457
2.34692
3.22229
4.01007
4.53445
4.46283
3.56189
1.90498
-0.436822
-3.03105
-6.01424
-9.20554
-12.2386
-14.9269
-17.2276
-19.0916
-20.5764
-21.6824
-22.6517
-23.2425
0.220322
0.795004
0.989104
1.68858
2.36143
3.26882
4.07838
4.60984
4.50987
3.52386
1.75766
-0.722137
-3.4149
-6.51928
-9.88325
-13.1295
-16.0665
-18.6452
-20.8043
-22.5848
-23.9709
-25.2219
-26.0953
0.191815
0.775137
0.971353
1.68079
2.37301
3.30756
4.13622
4.67269
4.54727
3.48275
1.62197
-0.975925
-3.73924
-6.93683
-10.4541
-13.9007
-17.0782
-19.9337
-22.4067
-24.5235
-26.2151
-27.7424
-28.9151
0.169512
0.757796
0.954824
1.67354
2.38297
3.3411
4.187
4.72684
4.57888
3.44069
1.49502
-1.20927
-4.0274
-7.30598
-10.9803
-14.645
-18.0877
-21.2459
-24.0693
-26.5659
-28.5892
-30.4005
-31.8838
0.15192
0.743298
0.939985
1.66775
2.39157
3.37078
4.23263
4.77445
4.60668
3.39775
1.37227
-1.43554
-4.30318
-7.66505
-11.5208
-15.4454
-19.203
-22.7109
-25.9259
-28.8293
-31.2221
-33.3569
-35.1496
0.138022
0.731347
0.927475
1.66382
2.39929
3.39794
4.27502
4.81794
4.63329
3.35577
1.2526
-1.6608
-4.57876
-8.03193
-12.1007
-16.3333
-20.462
-24.3667
-27.9907
-31.295
-34.0633
-36.4884
-38.553
0.126944
0.721683
0.917792
1.6613
2.40601
3.42294
4.31495
4.85853
4.66037
3.31619
1.13615
-1.88757
-4.85557
-8.40243
-12.7067
-17.2813
-21.8215
-26.1388
-30.1397
-33.8199
-36.9386
-39.5906
-41.9247
0.118036
0.714171
0.911034
1.65988
2.41214
3.44661
4.35373
4.89821
4.69066
3.28214
1.02581
-2.11257
-5.12589
-8.75635
-13.3009
-18.2309
-23.1971
-27.901
-32.231
-36.3009
-39.7845
-42.6039
-45.1192
0.110836
0.708766
0.906539
1.65817
2.41632
3.46706
4.38927
4.93487
4.7223
3.25256
0.921273
-2.33548
-5.38229
-9.07064
-13.8426
-19.1217
-24.4946
-29.5331
-34.1766
-38.6751
-42.6287
-45.6765
-48.1261
0.104778
0.705892
0.904939
1.65801
2.42216
3.48967
4.42905
4.97794
4.76684
3.23903
0.833246
-2.54581
-5.60974
-9.31791
-14.2955
-19.9042
-25.6364
-30.9895
-36.0461
-41.0533
-45.3576
-48.4491
-50.7119
0.100639
0.704856
0.90301
1.65408
2.42158
3.50265
4.4583
5.01077
4.80664
3.22706
0.75154
-2.75018
-5.80834
-9.48563
-14.6401
-20.5426
-26.5766
-32.325
-37.9403
-43.2583
-47.5278
-50.6057
-52.8514
0.0980987
0.710493
0.914403
1.67198
2.45359
3.5601
4.54623
5.11399
4.93313
3.31977
0.78372
-2.84243
-5.89869
-9.51768
-14.8302
-20.9919
-27.3281
-33.6341
-39.7987
-45.0845
-49.392
-52.7903
-55.452
0.0850549
0.717028
0.932077
1.70469
2.50827
3.64725
4.6719
5.26403
5.11569
3.48514
0.89596
-2.84856
-5.91454
-9.46121
-14.9083
-21.2913
-27.9755
-34.889
-41.4731
-46.7886
-51.524
-55.5503
-58.7987
0.0827274
0.732828
0.960536
1.75063
2.57808
3.74902
4.80884
5.41627
5.2857
3.62413
0.960993
-2.91926
-6.00619
-9.4631
-15.029
-21.6121
-28.6691
-36.0914
-42.9672
-48.6742
-53.9818
-58.4523
-62.0944
0.0910513
0.755714
0.995366
1.80203
2.65083
3.84775
4.93348
5.5416
5.40935
3.70219
0.946305
-3.08523
-6.19615
-9.53699
-15.2131
-21.9819
-29.3886
-37.1859
-44.2949
-50.6124
-56.4736
-61.2574
-65.2431
0.102002
0.779936
1.03045
1.85244
2.71932
3.93575
5.03827
5.63415
5.48404
3.72155
0.862377
-3.32503
-6.4431
-9.6222
-15.3969
-22.3224
-30.0121
-38.1058
-45.5306
-52.4614
-58.872
-64.0607
-68.4069
0.111289
0.802307
1.06253
1.89848
2.78009
4.01035
5.1223
5.69641
5.51701
3.69553
0.731452
-3.60631
-6.69922
-9.65491
-15.4958
-22.4846
-30.3582
-38.8068
-46.5904
-53.9352
-60.7523
-66.3462
-70.8681
0.118793
0.822496
1.09154
1.94046
2.83423
4.07421
5.19084
5.73803
5.52349
3.64607
0.583006
-3.89262
-6.92048
-9.58053
-15.4306
-22.3687
-30.3906
-39.2104
-47.1407
-54.6331
-61.4457
-67.0499
-71.6487
0.125712
0.841424
1.11897
1.98021
2.88454
4.13205
5.25146
5.77083
5.52034
3.59506
0.44314
-4.15674
-7.08078
-9.37186
-15.1573
-21.964
-30.1632
-39.201
-47.0894
-54.6199
-61.1298
-66.3584
-71.0173
0.132976
0.859884
1.14618
2.01958
2.93387
4.18825
5.31067
5.80452
5.52072
3.55857
0.328953
-4.38433
-7.17313
-9.02544
-14.6748
-21.3517
-29.7349
-38.8159
-46.6526
-54.0555
-59.9309
-65.1065
-69.5017
0.141003
0.878428
1.17403
2.05949
2.98364
4.24507
5.37192
5.84414
5.53099
3.54285
0.244284
-4.57848
-7.21358
-8.56552
-14.0233
-20.6161
-29.1207
-38.2327
-46.0793
-53.0053
-58.4585
-63.3426
-67.58
0.149827
0.897243
1.20279
2.1003
3.03448
4.30342
5.4364
5.89129
5.55257
3.5478
0.185349
-4.75023
-7.22677
-8.02372
-13.2351
-19.7682
-28.412
-37.6332
-45.4752
-51.5496
-57.1181
-61.4678
-65.4185
0.159297
0.916439
1.23247
2.14182
3.08614
4.36301
5.50366
5.94514
5.58352
3.56884
0.143241
-4.91579
-7.24244
-7.4346
-12.3188
-18.7895
-27.8507
-37.0177
-44.6145
-49.9914
-55.2989
-59.3675
-62.8697
0.169178
0.935957
1.26284
2.18382
3.13838
4.42344
5.57293
6.00436
5.6213
3.60124
0.110125
-5.08783
-7.28371
-6.81393
-11.2402
-17.741
-27.8342
-36.2948
-42.8954
-48.1433
-52.8006
-56.7162
-59.8383
0.179268
0.955795
1.29371
2.22597
3.19076
4.48411
5.64326
6.06742
5.66327
3.64031
0.0790114
-5.27705
-7.37078
-6.15629
-9.98712
-16.8892
-28.2711
-35.204
-40.4993
-45.947
-50.0968
-53.7825
-56.5233
0.189409
0.975868
1.32486
2.26816
3.24318
4.54482
5.71419
6.13344
5.70784
3.68347
0.0467531
-5.48838
-7.5131
-5.43464
-8.67004
-16.6954
-28.48
-33.86
-37.9998
-43.4264
-47.2544
-50.564
-52.9596
0.19954
0.99619
1.35618
2.31027
3.29547
4.60536
5.78532
6.20175
5.75392
3.72886
0.0115154
-5.72481
-7.71452
-4.61337
-7.44887
-17.3549
-27.7148
-32.2923
-35.8141
-40.7795
-44.5187
-47.3408
-49.3338
0.209645
1.01671
1.3876
2.35236
3.34778
4.66589
5.85668
6.27229
5.80134
3.77639
-0.0255999
-5.98532
-7.97347
-3.65133
-6.36753
-18.3479
-26.1474
-30.343
-34.1311
-38.4667
-42.032
-44.4507
-46.0068
0.219776
1.03747
1.41915
2.39448
3.40012
4.72642
5.92824
6.34496
5.8501
3.82602
-0.0634326
-6.27023
-8.2905
-2.51397
-5.74408
-19.0927
-24.8318
-29.0525
-33.3156
-36.855
-39.9164
-41.976
-43.1787
0.229987
1.05844
1.45084
2.43678
3.45272
4.7872
6.00017
6.42001
5.9007
3.87876
-0.0993717
-6.58065
-8.63691
-1.16146
-6.10848
-19.9071
-24.9704
-29.2173
-33.4374
-36.1163
-38.5204
-40.1343
-40.9575
0.24036
1.07968
1.48275
2.47931
3.50559
4.84827
6.07251
6.49751
5.95355
3.93506
-0.132503
-6.91466
-8.94689
0.186323
-7.47628
-21.1589
-26.4542
-30.0513
-33.609
-35.9449
-37.5988
-38.4442
-38.7893
0.250946
1.10115
1.5149
2.52221
3.55892
4.90983
6.14538
6.57772
6.00924
3.99583
-0.160938
-7.26019
-9.22901
1.00704
-9.24528
-22.2838
-27.6644
-30.7464
-33.1481
-35.0695
-35.565
-35.69
-35.6241
0.261793
1.12289
1.54739
2.5655
3.61268
4.97187
6.21882
6.66071
6.06829
4.0613
-0.182859
-7.5982
-9.5344
0.948323
-10.9865
-22.7568
-27.7661
-30.4524
-31.8396
-32.7074
-32.3907
-31.7889
-31.1966
0.272934
1.14488
1.58021
2.60923
3.66697
5.0345
6.29286
6.74666
6.13119
4.13189
-0.194417
-7.90751
-9.8205
0.22367
-12.6214
-23.2866
-27.2421
-29.668
-30.1235
-29.754
-28.6832
-27.4034
-26.3915
0.284335
1.16713
1.61345
2.65348
3.72187
5.09788
6.36783
6.83604
6.19893
4.20821
-0.192588
-8.15441
-9.82455
-0.976281
-14.3077
-24.3505
-26.689
-28.72
-28.4299
-27.0023
-25.2155
-23.2531
-21.7655
0.29625
1.18982
1.64729
2.69846
3.77764
5.16235
6.44411
6.92947
6.27267
4.29121
-0.168434
-8.32536
-9.55624
-2.86098
-16.2628
-25.9264
-26.3492
-27.5925
-26.5323
-24.2081
-21.7031
-19.1186
-17.2045
0.308297
1.21242
1.68157
2.74421
3.83478
5.22922
6.52416
7.03106
6.35929
4.38893
-0.0877395
-8.41256
-9.094
-5.47737
-17.9653
-27.0842
-25.6026
-25.5291
-23.5947
-20.5861
-17.4124
-14.2977
-12.0643
0.317699
1.23444
1.71635
2.79232
3.8967
5.30453
6.61763
7.15553
6.48083
4.53061
0.123164
-8.34644
-8.34639
-8.21602
-18.5911
-26.5258
-23.1175
-21.0306
-18.0198
-14.3682
-10.6132
-7.10437
-4.72628
0.329533
1.25878
1.75477
2.84581
3.9671
5.39329
6.73121
7.31069
6.64667
4.72535
0.482537
-8.13507
-7.12118
-10.5439
-18.4187
-23.855
-18.4003
-14.0882
-9.71849
-5.21314
-1.06156
2.67813
4.92202
0.344111
1.2858
1.79747
2.90556
4.04711
5.49665
6.86541
7.4944
6.84983
4.95673
0.955661
-7.88995
-5.54742
-12.3732
-17.5382
-19.6757
-12.2237
-5.94731
-0.231789
5.22974
9.50791
13.2999
15.1869
0.360063
1.31458
1.84348
2.97041
4.13502
5.61178
7.01508
7.69638
7.07185
5.19097
1.47619
-7.73181
-3.96149
-13.9133
-16.0446
-14.8863
-5.78557
1.96402
8.71936
14.9573
19.0442
22.6251
23.9008
0.376615
1.3445
1.89197
3.03929
4.22922
5.73592
7.17524
7.90719
7.29569
5.39814
1.98098
-7.76202
-2.72996
-15.3621
-14.0928
-10.1519
0.0886384
8.76284
16.0997
22.6576
26.2487
29.2019
29.5621
0.393574
1.37518
1.94206
3.11067
4.32706
5.8647
7.33893
8.11542
7.50438
5.55321
2.4137
-8.02048
-2.05213
-16.7242
-12.0137
-6.16562
4.68511
13.7854
21.2125
27.5264
30.3623
32.2083
31.4446
0.410889
1.40646
1.99354
3.18427
4.42816
5.99753
7.50512
8.31901
7.69379
5.65121
2.76038
-8.5307
-2.0882
-17.6664
-9.77971
-2.9854
8.15702
17.285
24.3529
29.8457
31.6594
32.0137
29.9935
0.428575
1.43857
2.04636
3.25999
4.53221
6.13384
7.67333
8.51841
7.86707
5.69921
3.01885
-9.19777
-2.66866
-18.0284
-7.46062
-0.319649
10.9485
19.8234
26.1818
30.493
31.033
29.7211
26.2658
0.447944
1.4723
2.10187
3.33878
4.63982
6.27337
7.84239
8.71178
8.02445
5.70439
3.17433
-10.1763
-3.98833
-18.5205
-5.78687
1.58126
12.6057
20.8303
26.0278
28.7142
27.689
24.6294
19.4676
0.4668
1.50537
2.15627
3.41574
4.74409
6.40662
7.99921
8.88137
8.14234
5.63897
3.19753
-11.4452
-5.91882
-19.4103
-5.06697
2.5354
12.9247
20.1084
23.804
24.3602
22.0597
17.2235
10.6076
0.484655
1.53718
2.20866
3.48984
4.84382
6.53246
8.14323
9.02814
8.22408
5.51501
3.11845
-12.9094
-8.22697
-20.485
-4.9993
2.87612
12.4926
18.4917
20.6615
18.8875
15.9374
9.43702
2.28172
0.502157
1.56845
2.26005
3.56235
4.94084
6.65362
8.27901
9.16011
8.28404
5.36113
2.98831
-14.4395
-10.6613
-21.6745
-5.448
2.75322
11.6155
16.5011
17.301
13.5967
10.2455
2.89054
-3.77432
0.519647
1.59955
2.3111
3.63421
5.03651
6.77224
8.41024
9.2842
8.33529
5.20321
2.85575
-15.9011
-12.9836
-22.9613
-6.35222
2.25365
10.447
14.416
14.0865
9.18809
5.39817
-1.64009
-7.24226
0.537199
1.6306
2.36199
3.70567
5.13131
6.88925
8.53886
9.40448
8.38607
5.05784
2.75533
-17.1827
-15.0183
-24.2613
-7.65572
1.46418
9.09298
12.3938
11.2352
5.82426
1.74476
-4.1452
-8.46223
0.554736
1.66153
2.4127
3.77672
5.2253
7.00485
8.66556
9.52283
8.44037
4.93285
2.70641
-18.2096
-16.6659
-25.4789
-9.16426
0.489846
7.63343
10.5064
8.84557
3.42526
-0.458193
-4.85924
-7.89959
0.572245
1.69233
2.46317
3.84728
5.31838
7.11899
8.79046
9.63984
8.49936
4.82985
2.71589
-18.9439
-17.8954
-26.5567
-10.846
-0.641348
6.13144
8.76303
6.94573
1.90895
-1.25834
-4.13608
-5.94209
0.589669
1.72296
2.51333
3.91724
5.41042
7.23153
8.91344
9.7555
8.56271
4.74678
2.78225
-19.3788
-18.7288
-27.4627
-12.9185
-1.99586
4.60918
7.12837
5.53739
1.23111
-0.912037
-2.37055
-2.94974
0.607016
1.75341
2.56313
3.98652
5.50133
7.34236
9.03435
9.8696
8.62945
4.67978
2.89859
-19.5319
-19.2276
-28.0529
-15.1253
-3.59756
3.04197
5.60809
4.54937
1.3335
0.277009
0.0640707
0.633245
0.624237
1.78366
2.61253
4.05507
5.59103
7.45139
9.15307
9.98184
8.69834
4.62421
3.05465
-19.4387
-19.4557
-28.2847
-17.1657
-5.33127
1.41934
4.23505
3.91849
2.05802
1.99375
2.83526
4.38917
0.64135
1.81371
2.66149
4.12287
5.67954
7.55861
9.26949
10.0919
8.76813
4.57547
3.2397
-19.1461
-19.5183
-28.406
-19.1075
-7.18331
-0.159584
3.06588
3.61018
3.1144
3.90252
5.63467
7.98489
0.65831
1.84355
2.71001
4.1899
5.76678
7.66396
9.38349
10.1996
8.83768
4.52919
3.44112
-18.6901
-19.5086
-28.564
-20.9368
-9.17021
-1.57136
2.08791
3.52117
4.19945
5.75714
8.20925
11.1834
0.675148
1.87317
2.75807
4.25616
5.85281
7.76743
9.49498
10.3045
8.90596
4.48157
3.64487
-18.0306
-19.4769
-28.8039
-22.6072
-10.9966
-2.78723
1.32008
3.5295
5.14201
7.41617
10.45
13.8643
0.691824
1.90257
2.80566
4.32163
5.93755
7.86892
9.60377
10.4064
8.97216
4.42946
3.83711
-17.2157
-19.5217
-29.2111
-24.1038
-12.4015
-3.97873
0.730215
3.52795
5.86659
8.80314
12.2974
15.9715
0.708377
1.93174
2.85277
4.38631
6.02102
7.96842
9.70974
10.5051
9.03565
4.37078
4.00008
-16.3299
-19.6966
-29.8973
-25.4364
-13.4052
-5.09251
0.179159
3.41716
6.35688
9.86133
13.7033
17.4484
0.724769
1.96066
2.89939
4.45016
6.1031
8.06575
9.81268
10.6001
9.09598
4.30371
4.11486
-15.4383
-20.0772
-30.8607
-26.5678
-14.16
-6.13512
-0.531471
3.08541
6.60235
10.5913
14.6456
18.2821
0.741043
1.98933
2.94551
4.51315
6.18381
8.16086
9.91243
10.6914
9.15293
4.22727
4.16889
-14.5984
-20.7043
-31.9524
-27.3071
-14.7525
-7.19078
-1.53494
2.46112
6.57603
10.9759
15.1414
18.5683
0.757154
2.01772
2.9911
4.57524
6.26298
8.25357
10.0088
10.7787
9.20636
4.1408
4.14991
-13.8286
-21.4948
-32.9656
-27.5153
-15.2273
-8.33224
-2.85819
1.53691
6.24098
11.0106
15.2219
18.4191
0.773146
2.04582
3.03613
4.63638
6.34062
8.34381
10.1016
10.8619
9.25629
4.04445
4.04497
-13.1511
-22.3518
-33.7379
-27.4881
-15.6462
-9.59155
-4.43446
0.375543
5.64111
10.7307
14.95
17.9354
0.788966
2.07362
3.08059
4.69652
6.41655
8.43138
10.1907
10.9408
9.30276
3.93838
3.84427
-12.5954
-23.2689
-34.2215
-27.5014
-16.0896
-10.9909
-6.18844
-0.936385
4.86949
10.2395
14.4328
17.2263
0.804656
2.1011
3.12443
4.75561
6.49078
8.51623
10.276
11.0154
9.34585
3.82348
3.54141
-12.1768
-24.2283
-34.5338
-27.3826
-16.6095
-12.5553
-8.05057
-2.31778
4.01401
9.61542
13.7598
16.3808
0.820157
2.12823
3.16763
4.81358
6.56312
8.59815
10.3572
11.0853
9.38558
3.70052
3.13266
-11.8895
-25.2622
-34.7648
-26.9541
-17.2485
-14.2914
-9.94438
-3.67816
3.14025
8.90392
12.9599
15.4436
0.835508
2.155
3.21015
4.87038
6.63356
8.67708
10.4342
11.1505
9.42201
3.57129
2.61983
-11.7379
-26.4378
-34.8598
-26.3859
-18.0471
-16.1263
-11.7642
-4.91896
2.30025
8.11515
12.0397
14.4319
0.850646
2.18139
3.25195
4.92594
6.70192
8.75279
10.5068
11.2106
9.4551
3.43755
2.00675
-11.6786
-27.7229
-34.7628
-26.0404
-19.0433
-17.961
-13.4254
-6.01457
1.47871
7.25746
11.0363
13.3745
0.865611
2.20739
3.29301
4.98021
6.7682
8.82523
10.5748
11.2655
9.48489
3.30159
1.29799
-11.6703
-28.9614
-34.638
-26.0571
-20.2644
-19.7233
-14.8832
-6.99976
0.630379
6.30096
9.94856
12.2583
0.880334
2.23295
3.33328
5.03311
6.83219
8.89416
10.638
11.3148
9.51134
3.16558
0.501143
-11.6932
-30.0002
-34.5962
-26.4233
-21.7051
-21.3791
-16.1137
-7.91783
-0.295987
5.21578
8.74645
11.0396
0.894859
2.25807
3.37271
5.08457
6.89387
8.95948
10.6961
11.3581
9.53459
3.03273
-0.370512
-11.7424
-30.7931
-34.6415
-27.0653
-23.2674
-22.8985
-17.1287
-8.79127
-1.30166
4.02234
7.45009
9.73358
0.909111
2.28271
3.41127
5.13452
6.95304
9.02093
10.7488
11.3949
9.55476
2.90637
-1.30064
-11.8133
-31.3286
-34.7424
-27.9203
-24.8556
-24.2282
-17.9999
-9.65767
-2.37503
2.75873
6.10286
8.38672
0.923137
2.30686
3.44891
5.18289
7.00965
9.07841
10.796
11.4251
9.5723
2.7911
-2.26942
-11.8967
-31.5818
-34.7996
-28.9626
-26.423
-25.3225
-18.8156
-10.5558
-3.50683
1.44694
4.71628
7.00043
0.936858
2.33048
3.48558
5.22958
7.06348
9.1316
10.8372
11.4481
9.58771
2.69157
-3.2562
-11.9911
-31.5072
-34.7822
-30.1284
-27.9119
-26.218
-19.6047
-11.5031
-4.71069
0.064293
3.26422
5.54867
0.950322
2.35354
3.52122
5.27451
7.11449
9.1804
10.8722
11.4635
9.60193
2.61364
-4.23853
-12.1059
-31.1017
-34.8945
-31.2922
-29.2413
-27.0051
-20.3427
-12.4733
-5.95399
-1.35577
1.7823
4.07039
0.963446
2.37601
3.55579
5.31757
7.1624
9.22447
10.9006
11.471
9.616
2.56306
-5.19193
-12.2621
-30.4588
-35.2095
-32.3453
-30.3663
-27.7038
-21.0187
-13.4225
-7.18626
-2.75626
0.323284
2.60815
0.976279
2.39786
3.58921
5.35867
7.20717
9.26368
10.9222
11.4702
9.63145
2.54654
-6.08714
-12.4748
-29.6525
-35.51
-33.187
-31.2872
-28.3173
-21.655
-14.341
-8.37589
-4.09965
-1.08099
1.19543
0.988731
2.41905
3.62144
5.3977
7.24853
9.29769
10.9366
11.4607
9.65005
2.57054
-6.89251
-12.7385
-28.729
-35.5433
-33.826
-32.0264
-28.8081
-22.2596
-15.2122
-9.48911
-5.34904
-2.4076
-0.152096
1.00086
2.43954
3.65238
5.43453
7.28637
9.3263
10.9435
11.4422
9.67359
2.64174
-7.56994
-13.0104
-27.7689
-35.2478
-34.2668
-32.5924
-29.1265
-22.7407
-15.9714
-10.4748
-6.48738
-3.64465
-1.43716
1.01254
2.45929
3.682
5.4691
7.32054
9.34937
10.9427
11.4147
9.70543
2.76685
-8.09238
-13.2318
-26.8561
-34.7191
-34.4781
-32.943
-29.2492
-23.017
-16.5579
-11.3058
-7.49109
-4.76324
-2.63672
1.02398
2.47833
3.7102
5.50111
7.35056
9.36607
10.9331
11.3768
9.74345
2.95
-8.3992
-13.2876
-26.0776
-33.9974
-34.4355
-33.0627
-29.2212
-23.1469
-16.9964
-12.0156
-8.39086
-5.80197
-3.77148
1.03472
2.49659
3.73725
5.53136
7.37778
9.37849
10.9171
11.3308
9.79672
3.18633
-8.57061
-13.2139
-25.4457
-33.1341
-34.0629
-32.7836
-28.9378
-23.0661
-17.2381
-12.557
-9.15165
-6.72372
-4.79523
1.04675
2.51561
3.76412
5.55966
7.40039
9.38152
10.8865
11.2617
9.79329
3.42922
-8.1914
-12.5025
-24.2945
-31.8227
-33.3572
-32.2927
-28.6277
-23.0745
-17.5714
-13.1564
-9.9643
-7.69578
-5.87891
1.06184
2.53509
3.79031
5.58207
7.41108
9.36397
10.8302
11.1703
9.73169
3.56578
-7.80247
-11.7141
-23.002
-30.1678
-32.0764
-31.0793
-27.5608
-22.455
-17.386
-13.3044
-10.3617
-8.27234
-6.58726
1.07294
2.54953
3.80768
5.58914
7.39632
9.30642
10.7201
11.0156
9.56999
3.62001
-7.19014
-10.7175
-21.1856
-27.9956
-30.1734
-29.2443
-25.8051
-21.1241
-16.5679
-12.9127
-10.3004
-8.4415
-6.92016
1.07859
2.55714
3.81361
5.57772
7.35162
9.20209
10.5436
10.7736
9.2886
3.61193
-6.26872
-9.55283
-18.8064
-25.3404
-27.6551
-26.7934
-23.5379
-19.2618
-15.2224
-12.0433
-9.80742
-8.20924
-6.87096
1.08196
2.5598
3.80995
5.54914
7.27797
9.05166
10.3004
10.4434
8.90263
3.57004
-5.09531
-8.3425
-16.1229
-22.3232
-24.5737
-23.729
-20.7899
-17.0425
-13.5908
-10.934
-9.09495
-7.76862
-6.62879
1.08466
2.55862
3.79793
5.5043
7.17629
8.85667
9.99364
10.0334
8.43925
3.51402
-3.81611
-7.14751
-13.4819
-19.0742
-21.125
-20.2735
-17.7074
-14.627
-11.8813
-9.82325
-8.41894
-7.38915
-6.47439
1.08634
2.55295
3.77662
5.44186
7.04516
8.61642
9.62527
9.5534
7.92503
3.45467
-2.57882
-5.98653
-11.0157
-15.7524
-17.51
-16.7966
-14.7531
-12.4025
-10.4129
-8.98497
-8.02624
-7.3072
-6.63895
1.08574
2.54131
3.74389
5.35879
6.88086
8.3275
9.19473
9.01144
7.37949
3.39503
-1.39221
-4.86398
-8.67876
-12.4898
-13.9525
-13.5379
-12.1771
-10.6555
-9.42929
-8.59963
-8.05661
-7.63725
-7.21591
1.08206
2.52222
3.69738
5.25165
6.67916
7.98621
8.70172
8.41517
6.81504
3.33161
-0.298317
-3.72628
-6.49752
-9.49384
-10.8156
-10.7985
-10.1516
-9.43169
-8.90603
-8.59682
-8.41881
-8.27169
-8.08085
1.07455
2.49426
3.63474
5.11695
6.43599
7.5897
8.14772
7.77225
6.23623
3.24975
0.587089
-2.55426
-4.61504
-7.0542
-8.38389
-8.80191
-8.8031
-8.73885
-8.7433
-8.81745
-8.91492
-8.98374
-8.9809
1.06281
2.45598
3.55359
4.95148
6.14829
7.1374
7.53733
7.09072
5.64084
3.11649
1.15625
-1.48628
-3.18801
-5.32179
-6.72679
-7.50289
-7.97886
-8.35634
-8.70254
-9.02281
-9.30218
-9.51985
-9.65026
1.04611
2.40577
3.45148
4.75224
5.81404
6.63097
6.87765
6.37743
5.0203
2.88599
1.36491
-0.727066
-2.29549
-4.2535
-5.70309
-6.69111
-7.43297
-8.04519
-8.56762
-9.01432
-9.39028
-9.69095
-9.89908
1.02388
2.34194
3.32598
4.51685
5.43298
6.07515
6.17834
5.63843
4.3647
2.52341
1.24181
-0.395961
-1.90526
-3.70456
-5.10976
-6.1493
-6.9723
-7.65525
-8.22859
-8.71149
-9.11683
-9.44608
-9.68546
0.995164
2.26254
3.17473
4.2438
5.00692
5.4774
5.45061
4.87963
3.66963
2.02669
0.866977
-0.460065
-1.88574
-3.48243
-4.75132
-5.72208
-6.50443
-7.15598
-7.70265
-8.16346
-8.55219
-8.87137
-9.11003
0.959203
2.1658
2.99587
3.93304
4.54036
4.84822
4.70729
4.1096
2.94357
1.43261
0.345477
-0.777943
-2.06423
-3.41376
-4.48832
-5.32547
-6.00739
-6.57858
-7.06049
-7.46947
-7.8175
-8.10598
-8.32625
0.914858
2.04987
2.78824
3.58647
4.04062
4.20036
3.96254
3.34183
2.2104
0.803147
-0.215729
-1.18742
-2.29222
-3.38159
-4.24572
-4.9292
-5.49336
-5.97033
-6.37592
-6.72308
-7.02045
-7.26842
-7.46071
0.861445
1.91358
2.55207
3.20842
3.51789
3.54849
3.23228
2.59587
1.50475
0.203781
-0.731198
-1.56714
-2.47566
-3.32339
-3.99404
-4.53288
-4.98358
-5.36788
-5.69742
-5.98128
-6.22539
-6.42994
-6.59065
0.797986
1.75622
2.28922
2.80591
2.98464
2.90828
2.53386
1.89531
0.862594
-0.315095
-1.14756
-1.85234
-2.57497
-3.2182
-3.72756
-4.14403
-4.49701
-4.801
-5.06376
-5.29083
-5.48622
-5.65074
-5.78191
0.724349
1.57861
2.00389
2.38847
2.45488
2.29568
1.88521
1.26326
0.312173
-0.725018
-1.44339
-2.02354
-2.58352
-3.06508
-3.44959
-3.76977
-4.04465
-4.28317
-4.49017
-4.67009
-4.82597
-4.95803
-5.06441
0.640455
1.3829
1.70249
1.96767
1.94317
1.72606
1.30276
0.717961
-0.131004
-1.01802
-1.6191
-2.08425
-2.5097
-2.86779
-3.15694
-3.40179
-3.61412
-3.79881
-3.9594
-4.09901
-4.22017
-4.32359
-4.40744
0.547587
1.17361
1.39382
1.55629
1.46362
1.2131
0.799322
0.269553
-0.46458
-1.20216
-1.69119
-2.05632
-2.37668
-2.64357
-2.86252
-3.05073
-3.21515
-3.35869
-3.48427
-3.59425
-3.68987
-3.7714
-3.83802
0.447724
0.957041
1.08832
1.16732
1.02911
0.767669
0.382459
-0.0801532
-0.696194
-1.29353
-1.68167
-1.96362
-2.20364
-2.40326
-2.56976
-2.71389
-2.84005
-2.95141
-3.04992
-3.13587
-3.20991
-3.27304
-3.32517
0.344454
0.741718
0.797523
0.813188
0.650332
0.397063
0.0541478
-0.3358
-0.838371
-1.30989
-1.60996
-1.82378
-2.00254
-2.15215
-2.27839
-2.38784
-2.4845
-2.5706
-2.64698
-2.71358
-2.77037
-2.81895
-2.85957
0.242428
0.537299
0.533044
0.504783
0.33535
0.104469
-0.188284
-0.506183
-0.905309
-1.26822
-1.49451
-1.65408
-1.78596
-1.89733
-1.99242
-2.07605
-2.15089
-2.21744
-2.27572
-2.32606
-2.36933
-2.40688
-2.43804
0.147271
0.354227
0.305609
0.250918
0.0888112
-0.110824
-0.351241
-0.602356
-0.911437
-1.18401
-1.35007
-1.46756
-1.5639
-1.646
-1.71754
-1.78208
-1.84018
-1.89114
-1.93548
-1.97367
-2.00685
-2.03557
-2.05888
0.0651753
0.201989
0.124138
0.0572022
-0.0882204
-0.253102
-0.44349
-0.635999
-0.869237
-1.06835
-1.18647
-1.27126
-1.34025
-1.40031
-1.45399
-1.50237
-1.54504
-1.58221
-1.6146
-1.64269
-1.66689
-1.68706
-1.70317
0.00176871
0.0886819
-0.00513247
-0.0738092
-0.197997
-0.32913
-0.475572
-0.619812
-0.792134
-0.933925
-1.01715
-1.07785
-1.12674
-1.17111
-1.21109
-1.24616
-1.2767
-1.30415
-1.32836
-1.34923
-1.36655
-1.38052
-1.39171
-0.0396023
0.0180386
-0.0802829
-0.143619
-0.245576
-0.346849
-0.457105
-0.563574
-0.688422
-0.787568
-0.846952
-0.891067
-0.926621
-0.960123
-0.989448
-1.01433
-1.03702
-1.05773
-1.07587
-1.09109
-1.10307
-1.11253
-1.12002
-0.0541978
-0.00607441
-0.0984119
-0.1508
-0.230638
-0.306047
-0.386954
-0.464115
-0.552871
-0.621754
-0.662964
-0.691389
-0.713811
-0.735782
-0.753803
-0.769125
-0.78396
-0.797568
-0.809118
-0.818002
-0.824415
-0.82898
-0.832266
-0.0613967
-0.0058482
-0.0812405
-0.115318
-0.171153
-0.221841
-0.276782
-0.327965
-0.384096
-0.430586
-0.474526
-0.521875
-0.566607
-0.6014
-0.622961
-0.638335
-0.651676
-0.66337
-0.672755
-0.679694
-0.684595
-0.687976
-0.690487
0.0137828
0.0806155
0.0382957
0.0273836
0.000658651
-0.0227419
-0.0513611
-0.0815656
-0.113419
-0.123835
-0.11191
-0.089847
-0.071817
-0.0673361
-0.0749686
-0.0865608
-0.095386
-0.101518
-0.105829
-0.108468
-0.10952
-0.109445
-0.108808
0.9157
0.796057
0.938839
1.18701
1.48066
1.85336
2.38878
3.13193
4.16563
5.57879
7.4054
9.66624
12.2984
15.2287
18.3395
21.5218
24.655
27.6276
30.3379
32.7143
34.7113
36.3319
37.5829
0.97791
0.944457
1.07258
1.34039
1.66599
2.07101
2.62514
3.37503
4.3884
5.73951
7.46533
9.58277
12.0477
14.795
17.723
20.7253
23.684
26.4843
29.0206
31.2183
33.0326
34.4768
35.5581
1.04836
1.09264
1.22236
1.50323
1.86158
2.30156
2.87687
3.63116
4.61757
5.89479
7.49799
9.44225
11.6993
14.2166
16.9111
19.6865
22.4335
25.0392
27.397
29.4284
31.0847
32.3821
33.3258
1.12696
1.22965
1.37639
1.667
2.05464
2.52973
3.12857
3.88782
4.84696
6.04848
7.52081
9.27609
11.2971
13.5455
15.9583
18.4564
20.9459
23.3232
25.4871
27.3569
28.8795
30.0661
30.9151
1.21055
1.34266
1.51422
1.81438
2.22512
2.73133
3.35275
4.11638
5.0488
6.17682
7.51805
9.07959
10.8501
12.804
14.8984
17.0757
19.2636
21.3767
23.3239
25.0262
26.4267
27.5283
28.322
1.28757
1.41636
1.60767
1.91656
2.34226
2.87015
3.50714
4.26956
5.17273
6.22922
7.44584
8.82211
10.3481
12.0068
13.7723
15.6084
17.4655
19.2805
20.9779
22.4875
23.7544
24.7719
25.523
1.33663
1.44489
1.64609
1.96682
2.40765
2.95377
3.60253
4.35995
5.22993
6.21175
7.30017
8.48556
9.75546
11.0991
12.507
13.9664
15.4551
16.9362
18.3581
19.6653
20.8046
21.754
22.4808
1.33506
1.4375
1.64382
1.98745
2.45846
3.03405
3.70288
4.45986
5.29479
6.19035
7.1253
8.07837
9.0346
9.99263
10.9669
11.9806
13.0525
14.1827
15.3448
16.4896
17.5514
18.4797
19.219
0.385774
-0.314791
0.0883211
-0.0520779
0.112232
0.178117
0.393792
0.863652
1.71007
3.21086
5.23784
8.00062
11.1248
14.5954
18.1157
21.6108
24.9235
27.9643
30.6519
32.9467
34.8376
36.3649
37.5567
0.401571
-0.272019
0.135778
0.00665604
0.189355
0.269861
0.515562
1.00466
1.87622
3.3879
5.42375
8.18039
11.3119
14.8001
18.3757
21.962
25.4135
28.6355
31.5422
34.0791
36.222
37.9909
39.4007
0.419301
-0.226102
0.189727
0.0750157
0.278486
0.37918
0.657914
1.16916
2.06691
3.58663
5.62867
8.37022
11.4988
14.9881
18.5973
22.2463
25.8015
29.165
32.2488
34.9878
37.3472
39.3293
40.9406
0.438582
-0.179268
0.246578
0.148737
0.372952
0.499124
0.813262
1.35139
2.27891
3.80909
5.85991
8.58521
11.7065
15.1875
18.8137
22.5021
26.129
29.5951
32.8109
35.7041
38.2344
40.3878
42.1694
0.460116
-0.13159
0.305175
0.226423
0.470946
0.626521
0.978335
1.54703
2.50657
4.0492
6.10986
8.81894
11.9298
15.3963
19.0267
22.7358
26.4082
29.9432
33.2503
36.2521
38.9043
41.1829
43.0945
0.484284
-0.0835465
0.363405
0.306104
0.568149
0.755692
1.14581
1.74809
2.74121
4.29841
6.37026
9.06421
12.1624
15.6094
19.2326
22.9459
26.6403
30.2145
33.5763
36.644
39.3724
41.7288
43.7252
0.511655
-0.0349782
0.418391
0.384639
0.659245
0.878122
1.30453
1.94078
2.96674
4.53902
6.6221
9.30216
12.3864
15.8107
19.418
23.1216
26.8179
30.4056
33.7905
36.8881
39.6513
42.042
44.0778
0.542569
0.0148492
0.467312
0.458955
0.738938
0.985681
1.44344
2.112
3.1688
4.75685
6.85264
9.52317
12.5963
15.9994
19.5865
23.2705
26.9518
30.5298
33.9092
37.0034
39.7636
42.1496
44.1836
0.577053
0.0689667
0.510751
0.530342
0.809369
1.07967
1.56289
2.2603
3.34363
4.94562
7.05251
9.71576
12.7793
16.1632
19.7278
23.3858
27.0389
30.5887
33.9393
37.003
39.7298
42.0776
44.076
0.615222
0.131606
0.551552
0.602443
0.875513
1.16473
1.66625
2.38635
3.48808
5.09681
7.20716
9.85868
12.9085
16.2711
19.8098
23.4355
27.0502
30.5573
33.861
36.8739
39.5444
41.831
43.7639
0.657311
0.206419
0.592535
0.678068
0.9427
1.24583
1.75832
2.49334
3.60243
5.20716
7.30722
9.93715
12.9623
16.2968
19.8018
23.3882
26.9539
30.4049
33.6452
36.5899
39.1858
41.3924
43.2398
0.703398
0.296317
0.637082
0.760072
1.01704
1.33078
1.84837
2.59052
3.69648
5.28335
7.35816
9.95001
12.9361
16.2287
19.6898
23.2256
26.7312
30.1121
33.2732
36.1324
38.6361
40.7486
42.4955
0.752492
0.402188
0.688206
0.848767
1.10263
1.42584
1.94529
2.68899
3.78239
5.339
7.37142
9.90776
12.8353
16.0696
19.4716
22.9446
26.3782
29.6765
32.7441
35.5026
37.8997
39.9049
41.5416
0.802881
0.522244
0.749706
0.944424
1.20203
1.53598
2.05657
2.79823
3.87255
5.38706
7.36199
9.82307
12.6725
15.828
19.1547
22.5507
25.9011
29.1063
32.0697
34.7165
36.9964
38.8878
40.4086
0.856479
0.654049
0.828782
1.05159
1.3211
1.66933
2.19287
2.93171
3.98398
5.44856
7.35467
9.72416
12.4778
15.5353
18.7703
22.0752
25.3323
28.4359
31.2879
33.8157
35.9713
37.7449
39.1504
0.133044
-0.779106
-0.61939
-1.01881
-1.23105
-1.48655
-1.85433
-1.92251
-1.77539
-1.23433
-0.305485
0.931403
2.27061
3.47006
4.41235
5.07388