/*--------------------------------*- C++ -*----------------------------------*\
  =========                 |
  \\      /  F ield         | OpenFOAM: The Open Source CFD Toolbox
   \\    /   O peration     | Website:  https://openfoam.org
    \\  /    A nd           | Version:  7
     \\/     M anipulation  |
\*---------------------------------------------------------------------------*/
FoamFile
{
    version     2.0;
    format      ascii;
    class       surfaceScalarField;
    location    "50";
    object      phi;
}
// * * * * * * * * * * * * * * * * * * * * * * * * * * * * * * * * * * * * * //

dimensions      [0 3 -1 0 0 0 0];

internalField   nonuniform List<scalar> 
25449
(
65.4092
59.1053
-35.9015
48.5403
43.9511
-27.0824
36.1831
32.8243
-20.4672
27.0701
24.5821
-15.4691
20.3126
18.4464
-11.6888
15.28
13.8654
-8.83277
11.5192
10.4388
-6.67794
8.70109
7.87273
-5.05464
6.58458
5.94992
-3.83341
4.9919
4.50799
-2.9153
3.79153
3.4251
-2.22473
2.88589
2.60991
-1.70426
2.20229
1.99425
-1.31064
1.68633
1.52755
-1.01158
1.29712
1.17245
-0.783241
1.00382
0.901204
-0.607898
0.783061
0.693251
-0.472491
0.617131
0.533312
-0.367382
0.492584
0.410006
-0.285461
0.399204
0.314821
-0.221442
0.329244
0.241286
-0.171326
0.27683
0.184625
-0.132213
0.140779
-0.10152
0.237569
49.6697
76.4067
36.9981
56.6226
27.6628
42.1596
20.7496
31.4953
15.6072
23.5887
11.7688
17.7039
8.89561
13.3119
6.73984
10.0285
5.11871
7.57106
3.89705
5.72965
2.97476
4.34739
2.2776
3.30706
1.75035
2.5215
1.35168
1.92622
1.0505
1.47362
0.82331
1.1284
0.652256
0.864304
0.52374
0.661827
0.427384
0.506362
0.35526
0.386945
0.301333
0.295212
0.26102
0.224938
0.17091
0.230889
36.7975
88.858
27.569
65.8509
20.7086
49.0198
15.5936
36.6103
11.7695
27.4129
8.90459
20.5688
6.75451
15.462
5.13797
11.6451
3.92003
8.789
3.00033
6.64935
2.30439
5.04332
1.77704
3.83442
1.37727
2.92127
1.07438
2.22911
0.845175
1.70282
0.672094
1.30148
0.541729
0.994671
0.443805
0.759751
0.370437
0.57973
0.315576
0.441805
0.274603
0.336186
0.24401
0.25553
0.193757
0.221163
26.8841
97.5181
20.3318
72.4029
15.3852
53.9663
11.6544
40.3411
8.8412
30.2261
6.72076
22.6893
5.12246
17.0603
3.91676
12.8508
3.00569
9.70008
2.3156
7.33945
1.7917
5.56722
1.39335
4.23276
1.09044
3.22418
0.860301
2.45925
0.685765
1.87736
0.553755
1.43349
0.454234
1.09419
0.379453
0.834531
0.323425
0.635757
0.281537
0.483693
0.250256
0.367467
0.226902
0.278884
0.211205
0.209454
19.5122
103.295
14.9787
76.9361
11.4635
57.4814
8.76114
43.0434
6.69461
32.2927
5.12171
24.2622
3.92789
18.2542
3.02265
13.756
2.33562
10.3871
1.81293
7.86214
1.41433
5.96581
1.10987
4.53722
0.8774
3.45665
0.700128
2.63652
0.565253
2.01224
0.462979
1.53576
0.385733
1.17144
0.32761
0.892654
0.284016
0.679352
0.251391
0.516319
0.226999
0.391861
0.208769
0.297113
0.224846
0.195128
14.1558
106.912
11.1179
79.9738
8.65092
59.9483
6.69463
44.9998
5.16547
33.8219
3.98426
25.4434
3.07847
19.16
2.38653
14.448
1.85822
10.9154
1.45394
8.26642
1.14384
6.27591
0.905572
4.77549
0.722681
3.63954
0.582524
2.77668
0.475392
2.11937
0.393832
1.61732
0.332031
1.23324
0.285402
0.939283
0.250339
0.714415
0.224032
0.542626
0.204312
0.411581
0.189542
0.311884
0.235927
0.17846
10.3337
108.924
8.39014
81.9171
6.67893
61.6595
5.25383
46.4249
4.10296
34.9727
3.19515
26.3512
2.489
19.8661
1.94422
14.9928
1.52513
11.3345
1.20218
8.58937
0.952868
6.52522
0.760002
4.96836
0.61111
3.78844
0.496342
2.89145
0.408087
2.20762
0.340518
1.68489
0.289056
1.2847
0.250045
0.978296
0.22058
0.743881
0.198377
0.56483
0.181665
0.428294
0.1691
0.324449
0.245387
0.15964
7.64678
109.751
6.49722
83.0665
5.32434
62.8323
4.27144
47.4778
3.38193
35.8623
2.66101
27.0722
2.09029
20.4369
1.64484
15.4382
1.29917
11.6802
1.03056
8.85798
0.821544
6.73424
0.65843
5.13147
0.531627
3.91524
0.433234
2.98984
0.357074
2.28378
0.298417
1.74355
0.253501
1.32962
0.219266
1.01253
0.193268
0.769879
0.173563
0.584535
0.158655
0.443202
0.147381
0.335722
0.253895
0.138872
5.20768
111.48
3.92104
84.353
2.9558
63.7976
2.23655
48.197
1.69948
36.3994
1.30085
27.4708
1.00491
20.7328
0.784735
15.6584
0.619703
11.8452
0.494322
8.98336
0.398102
6.83046
0.323478
5.2061
0.265621
3.9731
0.220601
3.03486
0.185503
2.31888
0.158254
1.7708
0.137248
1.35063
0.121165
1.02861
0.108915
0.782131
0.0996103
0.593841
0.0925457
0.450267
0.0871944
0.341073
0.257982
0.0831078
3.33185
112.596
2.50709
85.1776
1.88894
64.4157
1.43078
48.6552
1.09038
36.7398
0.840002
27.7212
0.655808
20.917
0.519894
15.7944
0.418488
11.9467
0.34122
9.06063
0.281516
6.89017
0.234621
5.25299
0.197848
4.00987
0.168791
3.06392
0.145706
2.34197
0.127451
1.78905
0.113146
1.36493
0.102032
1.03973
0.0934483
0.790714
0.0868402
0.60045
0.0817478
0.455359
0.0778343
0.344987
0.26102
0.0747958
1.96022
113.26
1.47312
85.6646
1.10859
64.7802
0.840864
48.9229
0.643899
36.9367
0.501546
27.8635
0.398746
21.0198
0.324165
15.8689
0.269028
12.0018
0.226709
9.10295
0.193512
6.92336
0.166734
5.27977
0.145262
4.03134
0.127783
3.0814
0.113393
2.35636
0.101628
1.80082
0.0921392
1.37442
0.0845765
1.04729
0.0785958
0.796696
0.073889
0.605157
0.0701758
0.459073
0.0672652
0.347898
0.263335
0.0649519
0.972076
113.599
0.728061
85.9085
0.545917
64.9623
0.414812
49.0541
0.320674
37.0309
0.255643
27.9286
0.211081
21.0644
0.180363
15.8997
0.158312
12.0239
0.140988
9.12028
0.126757
6.9376
0.114379
5.29215
0.10386
4.04186
0.094651
3.09061
0.0864376
2.36457
0.0792449
1.80801
0.0731142
1.38055
0.0680044
1.0524
0.0638018
0.800899
0.0603811
0.608578
0.0575969
0.461858
0.0553575
0.350138
0.265163
0.0535297
0.273387
113.707
0.200886
85.981
0.147134
65.0161
0.111908
49.0893
0.0898323
37.053
0.0788695
27.9395
0.0750159
21.0683
0.0749461
15.8997
0.0760191
12.0228
0.0761758
9.12012
0.0752297
6.93854
0.0729548
5.29443
0.070129
4.04469
0.0667101
3.09403
0.0627785
2.3685
0.0587126
1.81208
0.0548437
1.38442
0.0513649
1.05588
0.0483336
0.803932
0.0457544
0.611159
0.0435807
0.464032
0.0417857
0.351934
0.266667
0.0402824
-0.208597
113.656
-0.163264
85.9355
-0.12911
64.9819
-0.0989608
49.0592
-0.0720248
37.0261
-0.0463139
27.9139
-0.0225524
21.0445
-0.00181437
15.879
0.0149845
12.006
0.0270438
9.10806
0.035148
6.93044
0.0397615
5.28982
0.042192
4.04226
0.0427123
3.09351
0.0416438
2.36957
0.0396143
1.8141
0.0371731
1.38686
0.0346992
1.05836
0.0323805
0.806251
0.0303085
0.613231
0.028505
0.465837
0.026984
0.353456
0.267971
0.0256797
-0.529032
113.499
-0.405903
85.8124
-0.314016
64.8901
-0.241228
48.9864
-0.182491
36.9673
-0.13311
27.8645
-0.0915429
21.0029
-0.0573796
15.8448
-0.0303994
11.979
-0.01058
9.08824
0.00345799
6.9164
0.0125987
5.28068
0.0184863
4.03638
0.0215802
3.09042
0.022333
2.36882
0.0215403
1.8149
0.0199117
1.38849
0.0179774
1.06029
0.0160306
0.8082
0.014221
0.615042
0.0126142
0.467445
0.0112503
0.354821
0.269162
0.0100611
-0.731846
113.276
-0.560145
85.6407
-0.432592
64.7625
-0.333751
48.8876
-0.255751
36.8893
-0.192127
27.8009
-0.139837
20.9507
-0.0975616
15.8026
-0.0643896
11.9459
-0.0398137
9.06367
-0.0221025
6.8987
-0.0101265
5.26871
-0.00205704
4.02831
0.00263365
3.08573
0.00445252
2.367
0.00431856
1.81503
0.00305986
1.38975
0.00133281
1.06202
-0.000485254
0.810018
-0.00219852
0.616756
-0.00372401
0.468971
-0.00500749
0.356106
0.270301
-0.00614539
-0.849463
113.014
-0.650292
85.4415
-0.503013
64.6153
-0.39011
48.7747
-0.301916
36.8011
-0.230869
27.7298
-0.17298
20.8928
-0.126429
15.756
-0.0899368
11.9094
-0.0627592
9.03649
-0.0429974
6.87894
-0.0294039
5.25511
-0.020055
4.01896
-0.0144354
3.08011
-0.0120676
2.36464
-0.01195
1.81492
-0.0131601
1.39096
-0.0149379
1.0638
-0.0168368
0.811919
-0.0186179
0.618538
-0.0201716
0.470527
-0.0214498
0.357385
0.271416
-0.0225641
-0.904477
112.733
-0.693311
85.2303
-0.537985
64.4599
-0.419811
48.6565
-0.328065
36.7094
-0.254593
27.6563
-0.194855
20.833
-0.146829
15.708
-0.109107
11.8717
-0.0808881
9.00828
-0.0602434
6.8583
-0.0459028
5.24078
-0.0359148
4.00898
-0.029832
3.07403
-0.0272682
2.36207
-0.0271759
1.81482
-0.0285651
1.39235
-0.0305864
1.06582
-0.0327138
0.814046
-0.0346684
0.620494
-0.0363143
0.472173
-0.0376295
0.358702
0.272509
-0.0387212
-0.916328
112.448
-0.703837
85.0179
-0.548511
64.3046
-0.431118
48.5391
-0.340386
36.6187
-0.26791
27.5838
-0.208879
20.774
-0.161272
15.6604
-0.123723
11.8341
-0.0955063
8.98006
-0.0747514
6.83754
-0.0602322
5.22626
-0.050014
3.99876
-0.0437571
3.06778
-0.0412193
2.35954
-0.0413301
1.81494
-0.0430526
1.39407
-0.0454579
1.06823
-0.0479239
0.816514
-0.0501394
0.62271
-0.0519428
0.473978
-0.0533291
0.360089
0.273577
-0.0543967
-0.89837
112.169
-0.691928
84.8114
-0.542159
64.1548
-0.429725
48.4267
-0.343159
36.5321
-0.274041
27.5147
-0.217472
20.7174
-0.171577
15.6145
-0.135152
11.7977
-0.107633
8.95255
-0.0872741
6.81719
-0.0729364
5.21193
-0.0627314
3.98857
-0.056456
3.06151
-0.0540641
2.35715
-0.0544817
1.81536
-0.0566391
1.39623
-0.0595352
1.07113
-0.0624469
0.819426
-0.065005
0.625269
-0.06703
0.476004
-0.0685518
0.361612
0.274672
-0.0696459
-0.864118
111.901
-0.667829
84.6151
-0.526709
64.0138
-0.421546
48.3216
-0.340867
36.4514
-0.276366
27.4502
-0.223158
20.6642
-0.179607
15.5709
-0.144755
11.7628
-0.118265
8.92605
-0.0985396
6.79746
-0.0845425
5.19793
-0.0744412
3.97847
-0.0681788
3.05525
-0.0659554
2.35493
-0.0667068
1.81611
-0.0693322
1.39886
-0.0727722
1.07457
-0.0762411
0.822897
-0.0792758
0.628306
-0.081637
0.478367
-0.083391
0.363368
0.2759
-0.0846184
-0.815478
111.649
-0.632876
84.4325
-0.50308
63.8839
-0.407216
48.2257
-0.333986
36.3782
-0.275306
27.3916
-0.22637
20.6153
-0.185848
15.5304
-0.153064
11.7301
-0.127906
8.9009
-0.108973
6.77853
-0.095377
5.18434
-0.0853709
3.96847
-0.0790583
3.04894
-0.0769554
2.35283
-0.078016
1.81717
-0.0810936
1.40194
-0.0851172
1.07859
-0.0892831
0.827065
-0.0929896
0.632013
-0.0959296
0.481309
-0.0981661
0.365605
0.277453
-0.0997162
-0.757226
111.415
-0.590885
84.2662
-0.474298
63.7674
-0.38907
48.1405
-0.324189
36.3133
-0.271871
27.3392
-0.227556
20.571
-0.190291
15.4932
-0.159717
11.6995
-0.136048
8.87723
-0.118126
6.76061
-0.105178
5.17139
-0.095472
3.95876
-0.0891804
3.04265
-0.0871906
2.35085
-0.0885006
1.81849
-0.0919534
1.40539
-0.0965693
1.08321
-0.101559
0.832057
-0.106143
0.6366
-0.109934
0.485101
-0.112901
0.368574
0.279595
-0.115042
-0.770594
111.189
-0.604657
84.1002
-0.483969
63.6467
-0.394611
48.0512
-0.327528
36.2463
-0.276107
27.2878
-0.235508
20.5304
-0.202815
15.4605
-0.176609
11.6733
-0.156095
8.85672
-0.140191
6.74471
-0.127652
5.15886
-0.117259
3.94838
-0.109729
3.03513
-0.106412
2.34754
-0.106619
1.8187
-0.109388
1.40817
-0.114017
1.08785
-0.119713
0.837756
-0.125362
0.642249
-0.130438
0.490179
-0.134727
0.372865
0.283012
-0.138142
-0.748865
110.975
-0.59166
83.9431
-0.477235
63.5323
-0.392466
47.9664
-0.328799
36.1826
-0.27996
27.239
-0.241265
20.4917
-0.209933
15.4291
-0.184713
11.6481
-0.164844
8.83685
-0.149239
6.7291
-0.13654
5.14616
-0.125589
3.93743
-0.117275
3.02682
-0.113227
2.34349
-0.112699
1.81818
-0.114856
1.41033
-0.119212
1.09221
-0.124921
0.843467
-0.130944
0.648275
-0.136845
0.496081
-0.1423
0.378323
0.28787
-0.147155
-0.727646
110.773
-0.578681
83.7941
-0.470152
63.4237
-0.389697
47.8859
-0.329238
36.1221
-0.282813
27.1926
-0.245902
20.4548
-0.215849
15.3991
-0.19154
11.6238
-0.172243
8.81756
-0.156882
6.71375
-0.143983
5.13327
-0.132425
3.92588
-0.123246
3.01765
-0.118335
2.33859
-0.116868
1.81672
-0.118211
1.41167
-0.121971
1.09597
-0.127135
0.848637
-0.132995
0.654135
-0.139193
0.502281
-0.14534
0.384474
0.293692
-0.151158
-0.706946
110.582
-0.565788
83.653
-0.462835
63.3208
-0.386459
47.8095
-0.329036
36.0647
-0.284896
27.1484
-0.24968
20.4196
-0.220832
15.3702
-0.19737
11.6003
-0.178601
8.79879
-0.163457
6.6986
-0.15032
5.12014
-0.138074
3.91363
-0.127922
3.0075
-0.122008
2.33268
-0.119422
1.81413
-0.119708
1.41196
-0.12242
1.09869
-0.126448
0.852669
-0.131377
0.659067
-0.136837
0.507742
-0.142434
0.390075
0.299101
-0.147839
-0.686783
110.401
-0.553041
83.5192
-0.455379
63.2231
-0.382874
47.7371
-0.328334
36.0102
-0.28637
27.1065
-0.252772
20.386
-0.225071
15.3425
-0.20241
11.5777
-0.18414
8.78052
-0.169192
6.68366
-0.155772
5.10672
-0.142748
3.90062
-0.131509
2.99628
-0.124453
2.32563
-0.120588
1.81028
-0.11955
1.41093
-0.120759
1.09991
-0.123122
0.85504
-0.126321
0.662266
-0.129967
0.511389
-0.133766
0.393878
0.302787
-0.137446
-0.66717
110.231
-0.540485
83.3926
-0.447855
63.1306
-0.379032
47.6682
-0.327238
35.9583
-0.287352
27.0666
-0.255306
20.3539
-0.228701
15.3159
-0.206802
11.5558
-0.18901
8.76273
-0.174241
6.66889
-0.160496
5.09298
-0.146599
3.88672
-0.134161
2.98384
-0.12583
2.31731
-0.120542
1.80499
-0.117931
1.40832
-0.117263
1.09925
-0.117515
0.855297
-0.11839
0.663141
-0.119535
0.512536
-0.120837
0.395185
0.304094
-0.122137
-0.648109
110.069
-0.528155
83.2726
-0.440317
63.0427
-0.375003
47.6029
-0.325829
35.9092
-0.287931
27.0287
-0.257376
20.3234
-0.231823
15.2904
-0.210652
11.5346
-0.193321
8.7454
-0.178719
6.65429
-0.164609
5.07887
-0.149744
3.87187
-0.136004
2.97011
-0.126273
2.30759
-0.119423
1.79815
-0.115052
1.40396
-0.112265
1.09647
-0.110093
0.853134
-0.108359
0.661407
-0.106817
0.510997
-0.105478
0.393849
0.302954
-0.104329
-0.629598
109.917
-0.516071
83.1591
-0.432807
62.9595
-0.370841
47.5409
-0.324171
35.8625
-0.288177
26.9927
-0.259058
20.2943
-0.234516
15.2658
-0.21404
11.5141
-0.197157
8.72851
-0.182719
6.63985
-0.168206
5.06436
-0.152278
3.85593
-0.137141
2.95498
-0.125885
2.29633
-0.117371
1.78964
-0.111182
1.39778
-0.106186
1.09148
-0.101545
0.8485
-0.0972102
0.65707
-0.0930721
0.506862
-0.0893022
0.390083
0.29962
-0.0859585
-0.611632
109.774
-0.50425
83.0517
-0.425355
62.8805
-0.366588
47.4822
-0.322315
35.8182
-0.288147
26.9585
-0.260412
20.2665
-0.236845
15.2423
-0.217032
11.4943
-0.200589
8.71207
-0.186316
6.62558
-0.171369
5.04942
-0.154282
3.83886
-0.137657
2.93836
-0.124763
2.28345
-0.114556
1.77945
-0.106596
1.38983
-0.0994278
1.08433
-0.092485
0.841566
-0.0858041
0.65039
-0.0793664
0.500426
-0.0735593
0.384279
0.294514
-0.0684426
-0.594205
109.639
-0.492703
82.9503
-0.417986
62.8059
-0.36228
47.4265
-0.320303
35.7763
-0.287889
26.9261
-0.26149
20.2401
-0.238861
15.2196
-0.219685
11.4751
-0.203677
8.69606
-0.189578
6.61148
-0.174166
5.034
-0.155825
3.82051
-0.137627
2.92016
-0.123003
2.26883
-0.111145
1.76759
-0.101542
1.38022
-0.0923762
1.07517
-0.0834719
0.832669
-0.0746789
0.641592
-0.0664772
0.492227
-0.059138
0.376942
0.288118
-0.0527313
-0.577309
109.512
-0.481438
82.8544
-0.41072
62.7351
-0.357946
47.3737
-0.31817
35.7365
-0.287443
26.8954
-0.262334
20.215
-0.240613
15.1979
-0.222046
11.4566
-0.206474
8.6805
-0.192562
6.59757
-0.176663
5.01811
-0.156978
3.80084
-0.137121
2.90032
-0.120718
2.25244
-0.10728
1.75416
-0.0962453
1.3692
-0.0853489
1.06429
-0.0748388
0.822167
-0.0643354
0.631091
-0.0548626
0.482757
-0.0464515
0.368533
0.280914
-0.039236
-0.560933
109.392
-0.470462
82.7639
-0.403576
62.6683
-0.353611
47.3237
-0.315947
35.6988
-0.286844
26.8663
-0.262984
20.1912
-0.242139
15.1771
-0.224158
11.4386
-0.209026
8.66536
-0.195323
6.58386
-0.178931
5.00172
-0.157813
3.77972
-0.136193
2.87869
-0.117977
2.23422
-0.103075
1.73926
-0.0908985
1.35702
-0.0786037
1.052
-0.0666138
0.810185
-0.0550498
0.61952
-0.0447291
0.47244
-0.0357379
0.359543
0.2733
-0.0281131
-0.545069
109.28
-0.459777
82.6786
-0.396565
62.605
-0.349295
47.2765
-0.31366
35.6632
-0.286122
26.8387
-0.263471
20.1685
-0.243476
15.1571
-0.226057
11.4212
-0.211375
8.65068
-0.197915
6.57041
-0.181032
4.98484
-0.158365
3.75706
-0.134843
2.85519
-0.114797
2.21419
-0.0987004
1.72318
-0.085596
1.34393
-0.0722065
1.03862
-0.0589663
0.796951
-0.0469409
0.607499
-0.0361702
0.461671
-0.0270112
0.350386
0.265607
-0.0193074
-0.529705
109.175
-0.449386
82.5984
-0.389701
62.5454
-0.345018
47.2318
-0.311334
35.6295
-0.285304
26.8127
-0.263825
20.147
-0.244655
15.1379
-0.227778
11.4043
-0.21356
8.63646
-0.200379
6.55722
-0.183
4.96746
-0.158648
3.7327
-0.13309
2.82962
-0.111231
2.19233
-0.0944334
1.70637
-0.0804195
1.32992
-0.0661796
1.02438
-0.0521685
0.782947
-0.0399849
0.595307
-0.0291185
0.450808
-0.0200344
0.341301
0.258076
-0.0124945
-0.514832
109.077
-0.439291
82.5228
-0.382992
62.489
-0.340795
47.1896
-0.308989
35.5977
-0.284416
26.7881
-0.264074
20.1267
-0.245706
15.1195
-0.229351
11.3879
-0.215613
8.62272
-0.202745
6.54436
-0.184882
4.9496
-0.158715
3.70654
-0.130985
2.8019
-0.107388
2.16874
-0.0905239
1.68952
-0.0753537
1.31476
-0.0604585
1.0095
-0.0462736
0.768764
-0.0340398
0.583078
-0.0234438
0.440213
-0.0146799
0.332538
0.250944
-0.00754169
-0.500439
108.985
-0.429492
82.4519
-0.37645
62.436
-0.336643
47.1498
-0.306646
35.5677
-0.283478
26.7649
-0.264242
20.1075
-0.246654
15.102
-0.230802
11.3721
-0.217561
8.60947
-0.20505
6.53184
-0.186754
4.9313
-0.158596
3.67838
-0.128467
2.77177
-0.103423
2.14369
-0.0868367
1.67293
-0.0703688
1.29829
-0.0550893
0.994218
-0.0412546
0.754934
-0.0291308
0.570946
-0.0189974
0.430083
-0.0107265
0.324265
0.244355
-0.00413153
-0.486515
108.899
-0.419989
82.3853
-0.37008
62.3861
-0.332574
47.1123
-0.30432
35.5394
-0.282514
26.7431
-0.264351
20.0893
-0.247524
15.0851
-0.232156
11.3567
-0.219432
8.59676
-0.207342
6.51976
-0.188679
4.91264
-0.158285
3.64799
-0.125546
2.73904
-0.0997166
2.11787
-0.0830623
1.65628
-0.0655877
1.28082
-0.0502473
0.978885
-0.0370316
0.741717
-0.025261
0.559182
-0.0156618
0.420485
-0.0079403
0.316544
0.238347
-0.00192943
-0.473049
108.82
-0.410783
82.3231
-0.363891
62.3392
-0.328602
47.077
-0.30203
35.5128
-0.28154
26.7226
-0.264423
20.0722
-0.248337
15.069
-0.233434
11.3418
-0.221258
8.58457
-0.209671
6.50817
-0.190719
4.89368
-0.15776
3.61502
-0.122435
2.7037
-0.0965904
2.09201
-0.0792447
1.63893
-0.0613908
1.26296
-0.0461016
0.963589
-0.0334357
0.729053
-0.0222832
0.548023
-0.0132628
0.411466
-0.00612246
0.309401
0.232892
-0.000667518
-0.460033
108.746
-0.401873
82.2649
-0.35789
62.2952
-0.324738
47.0439
-0.29979
35.4879
-0.280577
26.7034
-0.264478
20.0561
-0.249116
15.0537
-0.23466
11.3274
-0.223072
8.57299
-0.212092
6.49719
-0.192909
4.87451
-0.156735
3.57885
-0.119073
2.66605
-0.093874
2.06682
-0.0755644
1.62063
-0.0579781
1.24538
-0.0428448
0.948458
-0.0304773
0.71668
-0.0200129
0.537564
-0.0116221
0.403074
-0.00504622
0.302823
0.227904
-6.25451e-05
-0.447457
108.679
-0.393258
82.2108
-0.352082
62.2541
-0.320993
47.0128
-0.297616
35.4645
-0.27964
26.6854
-0.264535
20.041
-0.24988
15.039
-0.235858
11.3134
-0.224897
8.56202
-0.214603
6.48689
-0.195286
4.85518
-0.155114
3.53867
-0.115309
2.62623
-0.0910335
2.04253
-0.0719829
1.60156
-0.0549406
1.22833
-0.0403879
0.933895
-0.0281738
0.704463
-0.0183228
0.527708
-0.0105285
0.39528
-0.00457903
0.296869
0.22341
-9.13718e-05
-0.435309
108.616
-0.384938
82.1604
-0.346473
62.2156
-0.317378
46.9837
-0.295521
35.4427
-0.278747
26.6687
-0.26461
20.0268
-0.250649
15.0251
-0.237047
11.2998
-0.226758
8.55174
-0.217203
6.47734
-0.197856
4.83584
-0.153309
3.49413
-0.11193
2.58485
-0.0879069
2.01851
-0.0684792
1.58214
-0.0517991
1.21166
-0.037954
0.920046
-0.0260516
0.692551
-0.016886
0.518547
-0.00976548
0.388157
-0.00439264
0.291492
0.21934
-0.000333127
-0.423582
108.559
-0.376913
82.1137
-0.34107
62.1798
-0.313904
46.9565
-0.29352
35.4223
-0.277914
26.6531
-0.264723
20.0136
-0.251442
15.0118
-0.238247
11.2866
-0.228693
8.54218
-0.219965
6.46861
-0.200392
4.81626
-0.150819
3.44454
-0.109626
2.54365
-0.0850995
1.99397
-0.0652671
1.5623
-0.0485918
1.19497
-0.0352345
0.906675
-0.0240609
0.681371
-0.015517
0.51
-0.00895361
0.381591
-0.00404367
0.286577
0.215706
-0.000421549
-0.412267
108.507
-0.369181
82.0706
-0.335877
62.1464
-0.31058
46.9312
-0.291624
35.4033
-0.277155
26.6386
-0.264889
20.0014
-0.252277
14.9992
-0.239473
11.2738
-0.230689
8.5334
-0.222846
6.46077
-0.202882
4.7963
-0.147082
3.38874
-0.107508
2.50407
-0.0825232
1.96898
-0.0625466
1.54232
-0.0458429
1.17827
-0.0328632
0.893685
-0.0223713
0.670868
-0.0141699
0.501803
-0.00810399
0.375521
-0.0035794
0.282047
0.212388
-0.000275446
-0.401353
108.459
-0.361741
82.031
-0.330899
62.1156
-0.307414
46.9077
-0.289846
35.3857
-0.276485
26.6252
-0.265127
19.99
-0.253173
14.9872
-0.240744
11.2613
-0.232742
8.52539
-0.225783
6.4538
-0.205945
4.77645
-0.143924
3.32671
-0.105312
2.46545
-0.0791027
1.94276
-0.0597093
1.52292
-0.0435856
1.16214
-0.0312092
0.881294
-0.021128
0.660778
-0.0130579
0.493732
-0.00725462
0.369714
-0.00299112
0.277779
0.209313
6.90773e-05
-0.390835
108.417
-0.354596
81.9948
-0.326143
62.0872
-0.304417
46.886
-0.288195
35.3695
-0.27591
26.613
-0.265432
19.9795
-0.254126
14.9759
-0.242058
11.2493
-0.234864
8.51819
-0.228855
6.4478
-0.209349
4.75695
-0.141306
3.25867
-0.103858
2.428
-0.0759377
1.91484
-0.0571423
1.50412
-0.0419207
1.14691
-0.0300643
0.869426
-0.0202126
0.650917
-0.0120462
0.485565
-0.00611349
0.363783
-0.00184334
0.273501
0.206267
0.00119441
-0.367728
108.362
-0.326663
81.9538
-0.297118
62.0576
-0.276022
46.8649
-0.261133
35.3546
-0.250422
26.6022
-0.241636
19.9708
-0.23214
14.9664
-0.221656
11.2388
-0.215849
8.51238
-0.211785
6.44373
-0.194285
4.73945
-0.127371
3.19175
-0.0929413
2.39356
-0.0660084
1.88789
-0.0495871
1.48769
-0.0371933
1.13451
-0.026828
0.859046
-0.018084
0.642161
-0.010419
0.477904
-0.00463252
0.357984
-0.0005808
0.269471
0.203383
0.00227763
-0.292443
108.319
-0.260064
81.9213
-0.236791
62.0343
-0.220216
46.8483
-0.208577
35.343
-0.200275
26.5939
-0.193535
19.964
-0.186201
14.9591
-0.177776
11.2304
-0.173253
8.50786
-0.171271
6.44175
-0.157053
4.72523
-0.101208
3.1359
-0.0689982
2.36135
-0.0455689
1.86446
-0.0342175
1.47633
-0.0271615
1.12746
-0.0203498
0.852225
-0.0144774
0.636281
-0.00900864
0.472432
-0.00477976
0.353765
-0.00189002
0.266575
0.201301
0.000205788
-0.232545
108.285
-0.206998
81.8958
-0.188652
62.016
-0.175618
46.8353
-0.166511
35.3339
-0.160076
26.5875
-0.154913
19.9589
-0.149257
14.9534
-0.142549
11.2237
-0.13921
8.50451
-0.1387
6.44124
-0.126527
4.71305
-0.0798763
3.08924
-0.0497631
2.33122
-0.0297323
1.84441
-0.0221674
1.46876
-0.018882
1.12417
-0.014884
0.848215
-0.0113314
0.63272
-0.00767548
0.46877
-0.00479053
0.35088
-0.00283919
0.26463
0.199922
-0.00146216
-0.18487
108.258
-0.164683
81.8756
-0.150195
62.0015
-0.139924
46.825
-0.132781
35.3267
-0.127784
26.5825
-0.123826
19.9549
-0.11947
14.9491
-0.114192
11.2184
-0.111842
8.50217
-0.112236
6.44163
-0.101429
4.70225
-0.0624495
3.05026
-0.0348552
2.30363
-0.018106
1.82766
-0.0134506
1.4641
-0.012598
1.12333
-0.0106003
0.84621
-0.00869017
0.630804
-0.00645711
0.466533
-0.00455542
0.348977
-0.00323996
0.263315
0.199155
-0.00247238
-0.14694
108.236
-0.130967
81.8597
-0.119508
61.9901
-0.1114
46.8169
-0.105786
35.3211
-0.101898
26.5786
-0.0988626
19.9519
-0.095515
14.9457
-0.0914049
11.2143
-0.0898332
8.50059
-0.0907426
6.44254
-0.0810534
4.69255
-0.048458
3.01766
-0.0236849
2.27884
-0.0100408
1.81401
-0.00753533
1.46159
-0.00816238
1.12395
-0.00750945
0.845547
-0.00667286
0.629961
-0.00554376
0.465397
-0.00433869
0.34777
-0.00335459
0.262331
0.198746
-0.00294641
-0.116723
108.219
-0.104031
81.847
-0.0949268
61.9809
-0.0884919
46.8105
-0.0840519
35.3167
-0.0810053
26.5756
-0.0786627
19.9495
-0.0760882
14.9432
-0.0729166
11.2111
-0.0719305
8.49961
-0.0730777
6.44369
-0.064396
4.68387
-0.0366074
2.98987
-0.0150596
2.2573
-0.004609
1.80356
-0.00357643
1.46056
-0.00508131
1.12546
-0.00532761
0.845786
-0.0051883
0.629818
-0.00490959
0.465114
-0.00426305
0.347121
-0.00350129
0.261568
0.198489
-0.00324407
-0.0929315
108.206
-0.0830096
81.8371
-0.0759036
61.9739
-0.0709001
46.8055
-0.0674737
35.3132
-0.0651582
26.5732
-0.0634104
19.9478
-0.0614751
14.9412
-0.0590651
11.2087
-0.0585351
8.49907
-0.0597977
6.44495
-0.0520802
4.67615
-0.0288501
2.96663
-0.00999077
2.23843
-0.00131867
1.79488
-0.00111102
1.46034
-0.00304471
1.1274
-0.00382057
0.846553
-0.00408851
0.630081
-0.0043273
0.465347
-0.00404066
0.346831
-0.00341953
0.260946
0.198196
-0.0031277
-0.0736087
108.195
-0.0655619
81.829
-0.0597869
61.9681
-0.0557116
46.8014
-0.0529153
35.3105
-0.0510305
26.5714
-0.0496299
19.9464
-0.0481163
14.9397
-0.0462742
11.2069
-0.0460246
8.49882
-0.0472088
6.44614
-0.0405606
4.66951
-0.0223638
2.94844
-0.00626827
2.22233
0.00104005
1.78757
0.000549781
1.46083
-0.00159728
1.12955
-0.00269824
0.847648
-0.0032502
0.63063
-0.00388218
0.465974
-0.00397171
0.346918
-0.00346534
0.260438
0.197767
-0.00303665
-0.0633944
108.182
-0.0530694
81.8187
-0.0453832
61.9604
-0.0397647
46.7958
-0.0357769
35.3064
-0.0330414
26.5686
-0.0310973
19.9444
-0.0292463
14.9378
-0.027119
11.2047
-0.0267633
8.49846
-0.0285048
6.44787
-0.0236299
4.66462
-0.00449832
2.92929
0.0146382
2.20319
0.0238134
1.77838
0.0235666
1.46107
0.0202463
1.13287
0.0177196
0.850167
0.0159478
0.632398
0.0143706
0.467546
0.0138718
0.347414
0.0143847
0.259924
0.197052
0.0150986
-0.0665501
108.168
-0.0557143
81.8078
-0.0476478
61.9523
-0.041756
46.7899
-0.0375837
35.3023
-0.0347412
26.5658
-0.03275
19.9424
-0.0308748
14.936
-0.0287465
11.2026
-0.0286444
8.49836
-0.0306622
6.4499
-0.0250569
4.65902
-0.00487802
2.90912
0.0159142
2.18239
0.0263087
1.76799
0.0263419
1.46104
0.0226475
1.13657
0.0197327
0.853076
0.0178109
0.634317
0.0161162
0.469236
0.0155657
0.347962
0.0159893
0.259499
0.196336
0.0167042
-0.0698631
108.153
-0.0584909
81.7965
-0.0500248
61.9439
-0.0438459
46.7837
-0.0394801
35.2979
-0.0365254
26.5628
-0.0344854
19.9404
-0.032588
14.9341
-0.0304666
11.2005
-0.0306408
8.49853
-0.0329366
6.45219
-0.0265001
4.65258
-0.0052449
2.88785
0.0172833
2.15986
0.0290029
1.75626
0.029455
1.46058
0.0254242
1.1406
0.0220939
0.856399
0.0200404
0.636368
0.0182502
0.471021
0.0176014
0.348608
0.0178067
0.259292
0.195692
0.0184491
-0.0733413
108.137
-0.0614057
81.7845
-0.05252
61.935
-0.0460397
46.7772
-0.0414706
35.2933
-0.0383983
26.5598
-0.0363077
19.9383
-0.0343894
14.9322
-0.0322827
11.1984
-0.0327583
8.499
-0.035333
6.45477
-0.0279544
4.64521
-0.00559054
2.86549
0.0187358
2.13553
0.0318688
1.74313
0.0328868
1.45956
0.0285815
1.14491
0.0247998
0.860176
0.0225695
0.638597
0.0206774
0.472908
0.0198623
0.349421
0.0197139
0.259438
0.195233
0.0201717
-0.0769927
108.121
-0.0644659
81.7721
-0.0551398
61.9257
-0.0483427
46.7704
-0.0435601
35.2885
-0.0403644
26.5565
-0.0382214
19.9361
-0.0362834
14.9302
-0.0342004
11.1963
-0.035005
8.4998
-0.037859
6.45761
-0.0294245
4.63676
-0.00600211
2.84206
0.0202351
2.10928
0.0349134
1.72844
0.0366091
1.45786
0.0320988
1.14942
0.0278511
0.864418
0.0253128
0.641133
0.0232906
0.474926
0.0222222
0.350486
0.0216692
0.25999
0.195068
0.0218335
-0.0808267
108.104
-0.0676789
81.7589
-0.0578899
61.9159
-0.0507603
46.7633
-0.0457536
35.2836
-0.0424286
26.5532
-0.0402312
19.934
-0.0382751
14.9283
-0.0362261
11.1943
-0.0373891
8.50097
-0.0405228
6.46075
-0.0309175
4.62716
-0.00647348
2.81761
0.021697
2.08111
0.0380609
1.71208
0.0406133
1.45531
0.035972
1.15406
0.0312405
0.869144
0.028231
0.644141
0.0260166
0.477134
0.0245684
0.351932
0.0236158
0.26094
0.195272
0.0234098
-0.0848514
108.086
-0.071052
81.7451
-0.0607772
61.9056
-0.0532983
46.7558
-0.0480564
35.2783
-0.0445959
26.5498
-0.0423421
19.9317
-0.0403696
14.9263
-0.0383663
11.1923
-0.0399185
8.50251
-0.0433334
6.46416
-0.032438
4.61626
-0.00700318
2.79217
0.0228289
2.05127
0.041048
1.69385
0.0448487
1.4515
0.040201
1.15871
0.0349662
0.874375
0.0313634
0.647743
0.0288487
0.479645
0.0269009
0.353876
0.0255292
0.262311
0.195897
0.0249031
-0.0890774
108.067
-0.0745935
81.7306
-0.0638083
61.8948
-0.0559628
46.748
-0.0504738
35.2728
-0.0468713
26.5462
-0.044559
19.9294
-0.042572
14.9243
-0.0406271
11.1903
-0.0426014
8.50449
-0.0462993
6.46787
-0.0339852
4.60395
-0.00751263
2.76569
0.0240085
2.01975
0.0441031
1.67375
0.0492297
1.44637
0.044735
1.1632
0.039027
0.880079
0.0347564
0.652013
0.0318014
0.482593
0.0293076
0.356367
0.0274748
0.264141
0.196981
0.0263899
-0.093514
108.047
-0.0783118
81.7154
-0.0669907
61.8835
-0.0587601
46.7397
-0.0530118
35.267
-0.0492603
26.5424
-0.0468872
19.927
-0.0448877
14.9223
-0.0430148
11.1885
-0.0454459
8.50691
-0.0494261
6.47184
-0.0355509
4.59007
-0.00789345
2.73803
0.0260109
1.98584
0.0478088
1.65195
0.0537717
1.44041
0.0495255
1.16744
0.0433998
0.886201
0.0384208
0.656991
0.0348942
0.486116
0.0318758
0.359382
0.0295651
0.26645
0.198542
0.0280024
-0.0981721
108.026
-0.0822155
81.6994
-0.0703318
61.8716
-0.0616968
46.7311
-0.0556762
35.261
-0.0517686
26.5385
-0.0493324
19.9246
-0.0473221
14.9203
-0.045536
11.1867
-0.0484607
8.50984
-0.0527164
6.4761
-0.0371179
4.57447
-0.00823148
2.70914
0.028164
1.94944
0.0516995
1.62841
0.0585148
1.43359
0.0545911
1.17137
0.048075
0.892713
0.0423692
0.662696
0.0381728
0.490306
0.034658
0.362894
0.0318888
0.269217
0.200559
0.0298706
-0.103063
108.004
-0.0863141
81.6827
-0.0738397
61.8592
-0.0647799
46.722
-0.0584736
35.2547
-0.0544022
26.5344
-0.0519001
19.9221
-0.0498809
14.9183
-0.0481977
11.185
-0.0516546
8.51328
-0.0561669
6.48061
-0.0386641
4.55696
-0.00863161
2.6791
0.0294775
1.91132
0.0550405
1.60284
0.0634091
1.42522
0.0599405
1.17483
0.0530744
0.899577
0.0466297
0.669141
0.0417116
0.495221
0.0377042
0.366898
0.0345137
0.272406
0.202977
0.0320946
-0.108198
107.981
-0.0906174
81.6651
-0.0775223
61.846
-0.0680169
46.7126
-0.0614104
35.2481
-0.0571672
26.5302
-0.0545964
19.9195
-0.0525701
14.9163
-0.0510071
11.1834
-0.0550378
8.51732
-0.0597633
6.48534
-0.0399275
4.53713
-0.00885842
2.64803
0.0303757
1.87208
0.0580944
1.57512
0.0683894
1.41492
0.0655632
1.17766
0.0583976
0.906738
0.0512101
0.676327
0.0455787
0.500846
0.0410845
0.37139
0.0375133
0.275975
0.205736
0.0347528
-0.113589
107.957
-0.0951357
81.6467
-0.0813891
61.8323
-0.0714154
46.7026
-0.0644938
35.2412
-0.0600704
26.5258
-0.0574278
19.9169
-0.0553961
14.9142
-0.0539714
11.182
-0.0586091
8.52194
-0.0635096
6.49023
-0.0412096
4.51482
-0.00914593
2.61595
0.0312328
1.83169
0.060933
1.54541
0.073222
1.40263
0.0713851
1.17949
0.0640031
0.914119
0.0561269
0.684203
0.0498235
0.507147
0.0448618
0.376348
0.0409547
0.279881
0.208782
0.037907
-0.119249
107.931
-0.0998795
81.6273
-0.0854488
61.8179
-0.0749836
46.6921
-0.0677313
35.2339
-0.0631186
26.5212
-0.0604009
19.9141
-0.0583653
14.9122
-0.0570983
11.1808
-0.0623785
8.52723
-0.067441