/*--------------------------------*- C++ -*----------------------------------*\
  =========                 |
  \\      /  F ield         | OpenFOAM: The Open Source CFD Toolbox
   \\    /   O peration     | Website:  https://openfoam.org
    \\  /    A nd           | Version:  7
     \\/     M anipulation  |
\*---------------------------------------------------------------------------*/
FoamFile
{
    version     2.0;
    format      ascii;
    class       volVectorField;
    location    "50";
    object      U;
}
// * * * * * * * * * * * * * * * * * * * * * * * * * * * * * * * * * * * * * //

dimensions      [0 1 -1 0 0 0 0];

internalField   nonuniform List<vector> 
12842
(
(14.9344 4.57222 -4.8121e-18)
(14.9233 4.55905 -1.64398e-18)
(14.9106 4.55287 -5.13347e-19)
(14.8932 4.54719 1.28826e-18)
(14.8723 4.54051 -4.91934e-18)
(14.8491 4.53407 0)
(14.8239 4.53018 0)
(14.7966 4.53217 -2.03028e-19)
(14.7663 4.54417 1.12209e-18)
(14.731 4.57055 -4.59541e-20)
(14.6877 4.61504 -2.62723e-19)
(14.6328 4.68012 9.27214e-21)
(14.563 4.76675 -4.13048e-19)
(14.4761 4.87449 -5.77095e-20)
(14.3712 5.00199 9.54302e-20)
(14.2488 5.14621 2.67658e-19)
(14.1112 5.3026 1.72753e-19)
(13.9623 5.46525 0)
(13.8074 5.62746 -1.34975e-21)
(13.6529 5.78255 -1.91505e-20)
(13.5046 5.92322 7.36821e-21)
(13.3677 6.04911 -1.12622e-20)
(13.2469 6.14323 2.16748e-20)
(14.9329 4.57476 3.91637e-18)
(14.9171 4.56901 0)
(14.9022 4.56586 -5.92497e-18)
(14.8816 4.56227 3.43436e-18)
(14.858 4.55709 3.98393e-18)
(14.8336 4.55142 0)
(14.8095 4.54768 -3.88202e-18)
(14.7868 4.5496 0)
(14.7654 4.56209 -1.47314e-18)
(14.7438 4.5905 -1.96396e-19)
(14.7187 4.63941 3.70417e-19)
(14.6855 4.71168 1.42096e-18)
(14.6395 4.80806 4.05952e-19)
(14.5766 4.92755 -1.08278e-18)
(14.4944 5.06803 0)
(14.3916 5.22556 -3.00891e-19)
(14.2693 5.39461 -2.77238e-19)
(14.1311 5.56842 4.86855e-19)
(13.9826 5.7395 0)
(13.8306 5.90094 1.44454e-20)
(13.6822 6.04528 8.96879e-20)
(13.5425 6.17321 2.89158e-21)
(13.4196 6.26519 1.28071e-20)
(14.9315 4.57826 0)
(14.9137 4.57979 0)
(14.8969 4.57953 -7.91542e-19)
(14.8729 4.57799 -1.99475e-17)
(14.8462 4.57415 0)
(14.8196 4.56867 0)
(14.7953 4.56389 -4.08755e-19)
(14.7756 4.56392 2.14527e-18)
(14.7615 4.57446 6.9707e-19)
(14.752 4.60204 -1.68075e-19)
(14.7435 4.65231 -1.46034e-18)
(14.7303 4.72877 -1.41485e-18)
(14.7063 4.83213 -4.46141e-19)
(14.6659 4.96107 1.65547e-18)
(14.6049 5.11291 0)
(14.5208 5.28296 2.91741e-19)
(14.4141 5.46471 -3.7509e-19)
(14.2879 5.65041 -3.41979e-19)
(14.1483 5.83172 -5.64498e-19)
(14.0023 6.00129 3.10819e-19)
(13.8578 6.15116 -8.18111e-20)
(13.7196 6.28321 0)
(13.598 6.37496 -1.43786e-20)
(14.9307 4.5829 1.03838e-18)
(14.913 4.59063 -2.71276e-18)
(14.894 4.59324 8.81853e-18)
(14.8667 4.59398 3.09578e-17)
(14.8367 4.59171 -2.57897e-18)
(14.8072 4.58639 6.92358e-18)
(14.7817 4.58019 7.20166e-19)
(14.7638 4.57743 -2.14746e-18)
(14.7558 4.58457 -1.12586e-18)
(14.7573 4.60945 -8.04134e-19)
(14.7644 4.65883 3.5689e-18)
(14.7702 4.73704 -6.83978e-19)
(14.767 4.84483 8.92274e-19)
(14.7478 4.98074 3.52377e-18)
(14.7071 5.14191 -5.84769e-19)
(14.6415 5.32306 7.55047e-19)
(14.5505 5.51675 2.28796e-19)
(14.4377 5.71423 6.11825e-19)
(14.3091 5.90616 6.43213e-20)
(14.1719 6.08475 3.18508e-19)
(14.0345 6.24138 9.86397e-20)
(13.901 6.37908 1.31163e-19)
(13.7831 6.47246 -1.93506e-19)
(14.9307 4.58848 8.93719e-18)
(14.9142 4.6008 0)
(14.8932 4.60644 -1.38724e-18)
(14.8627 4.60984 -1.12647e-17)
(14.8294 4.6096 -1.31653e-18)
(14.7967 4.60479 -1.84226e-17)
(14.7693 4.59724 -4.85347e-19)
(14.7522 4.59129 4.99542e-18)
(14.7493 4.59406 1.07811e-18)
(14.7609 4.6147 7.88493e-19)
(14.7825 4.66122 -4.01059e-18)
(14.8063 4.73898 -4.31695e-18)
(14.8227 4.84876 1.0748e-18)
(14.8239 4.98931 -7.58878e-18)
(14.8032 5.15786 -2.91659e-18)
(14.756 5.34869 1.94275e-18)
(14.6817 5.55339 0)
(14.5837 5.76209 -6.31832e-19)
(14.4681 5.96449 0)
(14.3419 6.15233 1.18035e-19)
(14.2136 6.31633 1.86889e-19)
(14.0869 6.46064 -1.63465e-19)
(13.9745 6.55707 -3.48578e-20)
(14.9315 4.59468 -8.30178e-18)
(14.9165 4.6099 0)
(14.894 4.61871 0)
(14.8605 4.62503 -1.78037e-17)
(14.824 4.62723 1.18348e-17)
(14.7875 4.62328 1.07877e-17)
(14.7574 4.6145 1.15231e-17)
(14.7404 4.60505 -5.73043e-18)
(14.7418 4.60256 0)
(14.7629 4.61769 1.31057e-18)
(14.7987 4.65965 3.6919e-18)
(14.8401 4.73509 2.26168e-18)
(14.8758 4.84471 0)
(14.897 4.98768 4.05602e-18)
(14.8962 5.16173 2.50638e-18)
(14.8678 5.36081 -1.42504e-18)
(14.811 5.57547 -3.2158e-19)
(14.729 5.79475 2.14502e-18)
(14.6279 6.00726 0)
(14.5143 6.20443 -8.48478e-19)
(14.3969 6.37625 2.67409e-19)
(14.2786 6.52799 8.8027e-19)
(14.1731 6.62852 -1.81993e-19)
(14.9331 4.60103 7.31588e-19)
(14.9194 4.61781 0)
(14.8963 4.62991 0)
(14.8603 4.63951 1.78061e-17)
(14.8212 4.64485 -1.34632e-17)
(14.781 4.6426 1.16618e-18)
(14.7477 4.63342 -7.25376e-18)
(14.7295 4.62099 -2.07765e-19)
(14.7331 4.61314 2.73935e-19)
(14.7612 4.62189 -1.70341e-18)
(14.8083 4.65758 -5.51512e-19)
(14.865 4.72841 4.29887e-18)
(14.9182 4.83504 0)
(14.9592 4.97747 -4.89686e-18)
(14.9794 5.15444 4.2929e-19)
(14.9717 5.35974 -5.54841e-19)
(14.9344 5.58278 1.51631e-18)
(14.8704 5.81143 -1.27423e-18)
(14.7854 6.03326 -1.51821e-18)
(14.6857 6.2395 -3.619e-19)
(14.5805 6.41923 3.72587e-20)
(14.4719 6.57903 -5.27114e-19)
(14.3744 6.68455 -3.35739e-19)
(14.9354 4.6073 0)
(14.9225 4.62453 1.00818e-18)
(14.8991 4.63974 -1.23285e-17)
(14.8604 4.65237 2.19912e-19)
(14.8183 4.6605 1.45865e-17)
(14.7738 4.65934 -1.90999e-18)
(14.7374 4.64879 4.92655e-19)
(14.7185 4.6319 3.81583e-18)
(14.726 4.61657 0)
(14.7633 4.61682 -2.05168e-18)
(14.8237 4.64448 3.09972e-19)
(14.8969 4.71004 2.09974e-19)
(14.9666 4.81337 0)
(15.0248 4.95476 4.84637e-18)
(15.0631 5.13395 -3.67544e-18)
(15.0741 5.34468 0)
(15.0561 5.57533 -1.50754e-18)
(15.0113 5.81277 0)
(14.9447 6.04364 1.22676e-18)
(14.8618 6.25918 0)
(14.7711 6.44728 -5.31722e-19)
(14.6743 6.61627 3.28818e-19)
(14.586 6.72719 4.44001e-19)
(14.9377 4.61363 0)
(14.9259 4.6304 0)
(14.9039 4.6481 -3.70092e-19)
(14.8639 4.6642 7.20315e-19)
(14.8199 4.67664 -1.67808e-17)
(14.7705 4.67971 -1.20903e-17)
(14.7278 4.67228 0)
(14.7023 4.65617 -3.49273e-18)
(14.7051 4.63848 0)
(14.7427 4.63378 3.83413e-18)
(14.8091 4.65411 3.45215e-18)
(14.8949 4.71111 -3.62464e-18)
(14.9821 4.80451 -3.93535e-19)
(15.0627 4.93682 0)
(15.1252 5.11113 3.8754e-18)
(15.1582 5.32235 2.72894e-18)
(15.1582 5.55762 -2.2345e-19)
(15.1281 5.80211 1.63228e-18)
(15.0739 6.04054 1.39039e-18)
(15.0021 6.26386 0)
(14.9218 6.45828 3.31898e-19)
(14.8337 6.63529 2.38808e-20)
(14.7529 6.75114 -2.56168e-19)
(14.9403 4.61999 -4.60853e-20)
(14.929 4.63556 -1.33155e-17)
(14.9075 4.6553 1.183e-17)
(14.8657 4.674 0)
(14.8196 4.68907 -2.84822e-19)
(14.7661 4.69416 -7.30875e-19)
(14.7191 4.68742 8.73568e-18)
(14.6898 4.67016 0)
(14.6909 4.64921 0)
(14.7302 4.64009 -1.83074e-18)
(14.8018 4.65494 -3.64454e-18)
(14.897 4.70666 -1.56146e-19)
(14.9957 4.79421 4.17146e-18)
(15.0908 4.92097 -1.433e-19)
(15.1697 5.09229 -5.10122e-19)
(15.2193 5.30371 4.37728e-19)
(15.2352 5.54153 -1.66354e-18)
(15.22 5.78999 -1.51033e-18)
(15.1799 6.03278 -1.59244e-18)
(15.121 6.26108 -1.12946e-18)
(15.0531 6.45957 3.66587e-19)
(14.9752 6.64254 -1.64563e-18)
(14.9047 6.76236 3.00299e-19)
(14.9431 4.62586 -1.16077e-17)
(14.9319 4.64012 1.50226e-17)
(14.9112 4.66193 -3.67976e-19)
(14.8677 4.68343 -1.20398e-17)
(14.82 4.70113 5.27901e-19)
(14.7628 4.70827 1.29885e-17)
(14.712 4.70199 -1.69022e-17)
(14.6794 4.68318 -2.40935e-19)
(14.6791 4.65841 1.17138e-19)
(14.7204 4.64439 -1.72564e-18)
(14.797 4.65351 1.67308e-19)
(14.9008 4.70007 -4.50864e-18)
(15.0097 4.78207 -3.74072e-18)
(15.1184 4.90353 0)
(15.2133 5.07201 4.17026e-18)
(15.2795 5.28348 -5.637e-18)
(15.3119 5.52323 -3.18564e-19)
(15.3126 5.7747 1.48972e-18)
(15.2878 6.02066 -8.91366e-21)
(15.2435 6.25279 1.4334e-18)
(15.1898 6.45424 0)
(15.124 6.64206 5.00319e-19)
(15.066 6.76488 0)
(14.946 4.63103 1.97211e-17)
(14.9347 4.64409 1.53123e-17)
(14.9148 4.66793 -6.28433e-19)
(14.8701 4.69241 2.40632e-17)
(14.8209 4.7128 -9.88606e-18)
(14.7605 4.7222 4.17764e-19)
(14.7062 4.71653 8.7877e-18)
(14.6706 4.69628 -4.73116e-20)
(14.6691 4.66763 5.48863e-20)
(14.7123 4.64858 1.74851e-18)
(14.7934 4.65165 0)
(14.9052 4.69272 4.15622e-18)
(15.0236 4.7687 3.52965e-19)
(15.1453 4.8842 -1.77384e-19)
(15.2561 5.04928 -4.34181e-18)
(15.3393 5.26027 1.16138e-19)
(15.3886 5.50128 1.49189e-18)
(15.406 5.75496 -2.40873e-18)
(15.3975 6.00314 0)
(15.3686 6.238 -9.75044e-19)
(15.3303 6.44109 1.29916e-18)
(15.2777 6.6325 0)
(15.2332 6.75704 -7.72307e-19)
(14.9488 4.63547 -7.22624e-18)
(14.9374 4.64754 3.29386e-19)
(14.9184 4.67335 -6.42526e-19)
(14.8726 4.70089 -1.17416e-17)
(14.8221 4.72401 1.96732e-17)
(14.7585 4.73584 -1.05274e-19)
(14.701 4.73095 -1.48131e-19)
(14.6626 4.70942 -4.89667e-18)
(14.6597 4.67699 6.54817e-20)
(14.7047 4.65296 0)
(14.7899 4.64987 3.79351e-18)
(14.9091 4.68511 1.14562e-19)
(15.0364 4.75433 1.3995e-19)
(15.1708 4.86275 2.59273e-20)
(15.2976 5.02343 -4.17494e-19)
(15.398 5.23315 3.0706e-18)
(15.4649 5.47466 -1.61254e-18)
(15.4995 5.72972 -2.14344e-19)
(15.5079 5.97914 -4.95737e-19)
(15.495 6.21558 1.33445e-18)
(15.4726 6.41872 -9.24822e-19)
(15.4342 6.61223 1.90594e-18)
(15.404 6.73693 -1.25962e-18)
(14.9516 4.63883 -7.58025e-18)
(14.94 4.65055 -1.52099e-17)
(14.9218 4.67827 -6.19814e-20)
(14.8753 4.70893 -1.27543e-17)
(14.8235 4.73482 -2.01699e-17)
(14.757 4.74927 1.07951e-19)
(14.6962 4.74534 1.52677e-19)
(14.6549 4.72266 -1.13627e-19)
(14.6508 4.68638 1.41587e-18)
(14.6974 4.65719 9.06869e-19)
(14.7862 4.64768 -4.0407e-18)
(14.9123 4.67685 -4.4514e-18)
(15.0477 4.73872 4.12497e-18)
(15.1943 4.83889 0)
(15.3374 4.99396 2.3509e-18)
(15.4556 5.20143 0)
(15.5405 5.44262 2.16713e-18)
(15.5927 5.69815 1.28665e-18)
(15.6183 5.9477 -1.62269e-20)
(15.6218 6.18452 -1.4687e-18)
(15.6158 6.38584 -3.01884e-20)
(15.5921 6.5796 2.99685e-21)
(15.5769 6.70256 -5.07904e-19)
(14.9547 4.64094 -3.01234e-20)
(14.9425 4.65317 -1.47773e-19)
(14.9253 4.68275 6.15228e-20)
(14.8782 4.71656 1.27266e-17)
(14.8252 4.74532 1.00925e-17)
(14.7559 4.7626 0)
(14.6919 4.75992 -6.64948e-20)
(14.6476 4.73639 5.05021e-18)
(14.6419 4.69651 2.95707e-20)
(14.6898 4.66213 -9.06052e-19)
(14.782 4.64561 2.00611e-18)
(14.9146 4.66791 6.90936e-18)
(15.0575 4.72157 -4.01023e-18)
(15.216 4.81232 3.14036e-18)
(15.3755 4.96053 2.12945e-19)
(15.5122 5.16463 1.20854e-20)
(15.6159 5.40457 -1.32356e-19)
(15.686 5.6597 -3.98212e-19)
(15.7291 5.90829 2.68182e-19)
(15.7492 6.14431 -4.39027e-19)
(15.7596 6.34191 -2.92119e-20)
(15.7505 6.53359 3.89366e-19)
(15.7509 6.65214 0)
(14.9576 4.64247 3.21909e-20)
(14.9449 4.6555 0)
(14.9286 4.68688 0)
(14.8811 4.72384 1.29394e-17)
(14.827 4.75553 1.05688e-17)
(14.7551 4.77578 -7.96182e-18)
(14.6879 4.77453 -7.98762e-20)
(14.6408 4.75033 2.65052e-20)
(14.6333 4.707 -1.47645e-18)
(14.6821 4.66753 -3.27547e-20)
(14.7771 4.64392 3.15582e-20)
(14.9158 4.65875 -2.31118e-18)
(15.0659 4.7029 0)
(15.2363 4.78259 -3.35251e-18)
(15.4127 4.92275 -4.97286e-18)
(15.5686 5.12252 -1.88711e-18)
(15.6922 5.36042 -1.08499e-18)
(15.781 5.6144 0)
(15.8418 5.86087 0)
(15.8785 6.09501 8.09914e-19)
(15.9045 6.28717 5.7762e-19)
(15.9082 6.47455 -1.19366e-18)
(15.924 6.58686 0)
(14.9604 4.64358 7.77369e-18)
(14.9472 4.65759 -7.50951e-20)
(14.9319 4.69074 3.04852e-20)
(14.8841 4.73081 -1.28581e-17)
(14.829 4.76551 -2.11503e-17)
(14.7547 4.78888 1.59171e-17)
(14.6844 4.78923 8.16536e-20)
(14.6342 4.76453 2.70238e-20)
(14.6248 4.71783 -3.58138e-20)
(14.6743 4.67319 0)
(14.7717 4.64224 -1.94746e-18)
(14.916 4.64917 2.33062e-18)
(15.0727 4.68286 0)
(15.2549 4.74964 0)
(15.4491 4.87981 2.34589e-18)
(15.6256 5.07394 1.43459e-19)
(15.7703 5.30896 1.22461e-18)
(15.8788 5.56121 8.90576e-19)
(15.9574 5.80528 -1.23871e-18)
(16.0102 6.03733 -4.41592e-19)
(16.05 6.22547 1.76495e-18)
(16.0659 6.40523 -1.64202e-18)
(16.0954 6.51447 1.09057e-18)
(14.9631 4.64432 -3.92638e-18)
(14.9494 4.65945 -7.62171e-18)
(14.9351 4.69433 -6.96473e-20)
(14.8871 4.7375 9.21672e-20)
(14.8312 4.77529 1.07235e-17)
(14.7547 4.80193 -8.13983e-18)
(14.6812 4.80408 3.53401e-20)
(14.628 4.77906 -1.92889e-20)
(14.6164 4.72905 -3.65877e-20)
(14.6662 4.67915 1.59343e-20)
(14.7657 4.64053 -2.09695e-20)
(14.9152 4.63896 -2.33017e-18)
(15.0778 4.66117 2.29175e-18)
(15.2717 4.7133 -1.0187e-19)
(15.4847 4.83147 0)
(15.6831 5.0182 -2.04203e-19)
(15.8508 5.24928 1.57932e-19)
(15.9803 5.49926 -8.7662e-19)
(16.0775 5.74075 1.52391e-18)
(16.146 5.96988 8.66873e-19)
(16.1979 6.15437 -5.77977e-19)
(16.2252 6.32245 -8.39143e-19)
(16.2648 6.43105 1.06875e-18)
(14.9655 4.64479 -3.27195e-20)
(14.9515 4.66112 7.69059e-18)
(14.9382 4.69769 0)
(14.8903 4.74393 0)
(14.8336 4.78488 0)
(14.755 4.81493 0)
(14.6783 4.81908 -3.61084e-20)
(14.6219 4.79389 3.37748e-20)
(14.6079 4.74061 1.87399e-20)
(14.6579 4.68532 1.55486e-20)
(14.7589 4.63864 -2.04518e-20)
(14.9132 4.62792 0)
(15.0813 4.63748 -4.46741e-18)
(15.2866 4.67302 1.23773e-19)
(15.519 4.77709 -2.5103e-19)
(15.7409 4.95449 2.1409e-18)
(15.9334 5.18032 -1.63831e-19)
(16.0857 5.42738 2.40597e-19)
(16.202 5.66621 -2.84415e-19)
(16.2853 5.89205 4.4139e-19)
(16.3469 6.07343 -5.98118e-19)
(16.3828 6.22843 0)
(16.4287 6.33641 5.41191e-19)
(14.9678 4.645 7.82605e-18)
(14.9536 4.6626 3.81312e-18)
(14.9413 4.70082 5.0944e-20)
(14.8936 4.75011 -6.82522e-18)
(14.8364 4.7943 -5.58842e-18)
(14.7559 4.82792 -3.28504e-20)
(14.6761 4.83427 5.65244e-18)
(14.6165 4.80913 -2.79682e-18)
(14.5998 4.75268 -8.11874e-19)
(14.6492 4.69184 0)
(14.7513 4.63668 4.43722e-20)
(14.9096 4.61608 -2.38724e-18)
(15.0823 4.61171 2.33687e-18)
(15.2984 4.6284 1.79876e-18)
(15.551 4.71585 1.43714e-18)
(15.7978 4.88162 0)
(16.0172 5.10056 0)
(16.1943 5.34409 -9.77662e-19)
(16.3298 5.58056 -9.69243e-19)
(16.4274 5.80365 4.46196e-19)
(16.4961 5.98315 3.00532e-19)
(16.537 6.12639 3.84365e-19)
(16.5859 6.23134 -5.10532e-19)
(14.9699 4.64509 -3.93113e-18)
(14.9554 4.66399 -3.83576e-18)
(14.9442 4.70385 3.61029e-20)
(14.8967 4.75617 -1.10134e-19)
(14.8389 4.80366 5.60111e-18)
(14.7565 4.84093 4.31909e-18)
(14.6735 4.84955 -2.70328e-18)
(14.6105 4.8244 2.78847e-18)
(14.5908 4.76446 8.31922e-19)
(14.6397 4.69769 1.38607e-21)
(14.7429 4.63358 0)
(14.9052 4.60244 2.33136e-18)
(15.082 4.58296 2.33565e-18)
(15.3081 4.57846 -1.90446e-18)
(15.5811 4.64654 -1.23882e-18)
(15.8537 4.798 -5.23089e-19)
(16.1018 5.008 -3.88941e-19)
(16.3053 5.24732 1.96836e-18)
(16.4611 5.48183 0)
(16.5734 5.70398 0)
(16.6485 5.88615 2.90332e-19)
(16.6928 6.02318 -7.32517e-19)
(16.739 6.12232 -4.71217e-19)
(14.9719 4.64484 3.88722e-18)
(14.9575 4.66503 0)
(14.9477 4.70641 0)
(14.9008 4.76173 1.3895e-17)
(14.843 4.81263 -5.69679e-18)
(14.7593 4.85399 -4.42697e-18)
(14.6732 4.86559 6.56241e-20)
(14.6063 4.84135 -1.4486e-18)
(14.5833 4.77926 -2.15844e-20)
(14.6307 4.70744 -2.46654e-19)
(14.7329 4.63386 4.28874e-20)
(14.8969 4.5907 -5.61212e-20)
(15.0754 4.55366 -2.33728e-18)
(15.3104 4.52416 2.0172e-18)
(15.605 4.56878 1.43574e-18)
(15.9057 4.7023 -1.11319e-18)
(16.1851 4.90058 9.14118e-19)
(16.4178 5.1345 -9.91114e-19)
(16.5982 5.36768 0)
(16.729 5.59148 0)
(16.8124 5.78188 -2.75832e-19)
(16.8579 5.92373 1.71044e-19)
(16.8945 6.02457 -4.2854e-19)
(14.9738 4.64525 -2.29756e-20)
(14.9587 4.66686 3.9366e-18)
(14.9493 4.71004 0)
(14.902 4.76818 -3.45993e-18)
(14.8431 4.82208 1.15924e-17)
(14.7572 4.86621 -3.50429e-20)
(14.6677 4.87843 1.26291e-19)
(14.5994 4.85298 1.48279e-18)
(14.5746 4.78578 -2.13712e-20)
(14.6194 4.7053 2.60639e-19)
(14.7209 4.62051 -1.61203e-20)
(14.8898 4.56629 -1.06804e-18)
(15.0737 4.51463 -1.51117e-19)
(15.3166 4.46153 -1.9021e-18)
(15.6304 4.48134 -1.63665e-18)
(15.9575 4.59371 8.86675e-20)
(16.2679 4.77651 0)
(16.5321 5.00204 -1.32322e-19)
(16.7441 5.23248 1.67245e-19)
(16.899 5.46033 0)
(16.9909 5.66675 2.67345e-19)
(17.0371 5.82519 -1.65098e-19)
(17.066 5.93227 0)
(14.9755 4.64269 -3.88401e-18)
(14.9612 4.66534 -3.94201e-18)
(14.9537 4.70917 0)
(14.9077 4.77054 -3.5328e-18)
(14.8494 4.82907 -1.17452e-17)
(14.7624 4.88055 -4.5827e-18)
(14.6696 4.90214 -6.11697e-18)
(14.5947 4.8826 0)
(14.5649 4.81348 -9.82724e-19)
(14.611 4.72674 -1.46424e-19)
(14.7133 4.63468 6.89601e-19)
(14.8783 4.57052 1.12049e-18)
(15.0556 4.49492 -2.25341e-20)
(15.3039 4.40349 2.92285e-20)
(15.6412 4.38708 -1.63791e-18)
(15.9996 4.47118 1.1296e-18)
(16.3454 4.63272 0)
(16.6512 4.84429 5.4914e-19)
(16.9066 5.07148 0)
(17.0897 5.31123 0)
(17.1952 5.54278 -2.57521e-19)
(17.2501 5.72728 -4.59074e-19)
(17.2791 5.8487 3.63305e-19)
(14.9766 4.64181 0)
(14.9622 4.66531 1.57843e-22)
(14.9551 4.70997 -5.02371e-22)
(14.9092 4.77327 3.61329e-18)
(14.8507 4.83442 2.91497e-18)
(14.7628 4.8898 4.58484e-18)
(14.6677 4.91581 3.08974e-18)
(14.5904 4.89964 1.06145e-21)
(14.558 4.83176 4.92561e-19)
(14.6007 4.74363 2.34031e-20)
(14.6997 4.64564 -4.2665e-20)
(14.8628 4.57025 0)
(15.0387 4.47304 2.31616e-20)
(15.2917 4.34664 -3.00442e-20)
(15.6487 4.29303 2.4331e-18)
(16.0345 4.34343 7.12772e-20)
(16.4152 4.47385 0)
(16.7687 4.65865 1.69825e-19)
(17.0759 4.87348 -1.77148e-19)
(17.299 5.11845 0)
(17.4449 5.3684 0)
(17.5376 5.58038 3.1777e-19)
(17.5955 5.7329 -1.70011e-19)
(14.9778 4.64117 -3.92761e-18)
(14.963 4.66558 -4.07822e-18)
(14.9564 4.71117 0)
(14.9106 4.7764 -3.61909e-18)
(14.8518 4.84019 3.00098e-18)
(14.7629 4.8993 4.71206e-18)
(14.6658 4.92932 -3.18869e-18)
(14.5856 4.9163 1.56121e-18)
(14.5503 4.84962 4.90957e-19)
(14.5908 4.75966 1.87069e-19)
(14.6882 4.65508 -6.50579e-19)
(14.8487 4.56799 -1.06773e-18)
(15.02 4.44895 -1.28649e-18)
(15.2746 4.28631 0)
(15.6497 4.19291 -8.52599e-19)
(16.0608 4.20539 1.28154e-18)
(16.4765 4.29672 5.66899e-20)
(16.8791 4.44484 -6.43368e-19)
(17.2388 4.63835 0)
(17.5148 4.87193 0)
(17.7238 5.1169 0)
(17.8801 5.33811 -5.04152e-19)
(17.9991 5.51695 3.77055e-19)
(14.9787 4.64054 3.9353e-18)
(14.9639 4.66591 -4.87291e-20)
(14.9577 4.71245 0)
(14.9121 4.77963 3.70866e-18)
(14.8531 4.84608 3.42084e-22)
(14.7636 4.90894 -7.09643e-18)
(14.6647 4.94297 6.40633e-18)
(14.5818 4.93312 -4.6623e-18)
(14.5439 4.8675 1.29704e-22)
(14.5827 4.7754 -6.3675e-20)
(14.6782 4.66416 -3.06646e-19)
(14.8343 4.56551 1.07548e-18)
(14.9984 4.42403 1.27744e-18)
(15.2521 4.22281 -1.1913e-18)
(15.6436 4.08652 1.52932e-20)
(16.0775 4.05663 -1.30235e-18)
(16.5265 4.10086 0)
(16.9753 4.2026 0)
(17.3833 4.35982 4.15194e-19)
(17.7198 4.55659 0)
(17.9995 4.76475 0)
(18.2308 4.95991 8.71806e-20)
(18.4283 5.13065 2.325e-19)
(14.9796 4.63989 0)
(14.9647 4.66624 4.14177e-18)
(14.9591 4.71374 -1.03507e-22)
(14.9137 4.78285 3.27768e-20)
(14.8547 4.85198 2.06812e-22)
(14.7645 4.91862 4.76955e-18)
(14.664 4.95672 -3.21708e-18)
(14.5785 4.95015 3.10308e-18)
(14.538 4.88564 3.85456e-19)
(14.5748 4.79136 0)
(14.6678 4.67365 3.05715e-19)
(14.8183 4.56362 2.34369e-21)
(14.9731 4.39893 1.13223e-21)
(15.2235 4.15646 1.19153e-18)
(15.6294 3.97408 0)
(16.0827 3.89731 7.08826e-19)
(16.5614 3.88715 -1.43906e-20)
(17.0494 3.93388 0)
(17.4976 4.03735 -4.16884e-19)
(17.8885 4.17085 0)
(18.2294 4.31253 0)
(18.5266 4.44626 0)
(18.7929 4.56893 2.1371e-20)
(14.9805 4.63923 0)
(14.9656 4.66657 -2.11351e-18)
(14.9604 4.715 1.92935e-23)
(14.9154 4.78602 -3.75292e-18)
(14.8564 4.85783 -3.12203e-18)
(14.7657 4.92827 -4.78954e-18)
(14.6636 4.97053 0)
(14.5755 4.96737 1.49622e-18)
(14.5324 4.90407 -7.19735e-19)
(14.567 4.80772 -4.1824e-23)
(14.6571 4.68384 2.88671e-19)
(14.8006 4.5627 -5.21048e-19)
(14.9435 4.37402 0)
(15.1875 4.08756 0)
(15.6054 3.85597 9.97682e-19)
(16.0739 3.72826 -7.00151e-19)
(16.5766 3.65765 0)
(17.0944 3.6417 -6.95185e-19)
(17.5721 3.67616 -4.75173e-19)
(17.9996 3.72605 0)
(18.3793 3.78158 6.38629e-21)
(18.718 3.83147 2.24577e-22)
(19.0236 3.88294 -1.61025e-19)
(14.9814 4.63855 -2.08321e-23)
(14.9665 4.66687 4.24947e-18)
(14.9619 4.71623 5.51379e-23)
(14.9171 4.78916 0)
(14.8582 4.86363 -1.37937e-20)
(14.7671 4.9379 4.80019e-18)
(14.6634 4.98439 7.82486e-22)
(14.5727 4.9848 -1.49796e-18)
(14.5269 4.92285 3.33913e-19)
(14.5592 4.82456 1.4265e-19)
(14.646 4.69486 -1.61465e-20)
(14.7808 4.56299 1.02956e-18)
(14.9088 4.34964 -1.39069e-18)
(15.1434 4.01648 4.39957e-21)
(15.5702 3.7328 -2.04029e-18)
(16.0488 3.5509 7.70564e-19)
(16.5682 3.4146 -3.26569e-20)
(17.1054 3.32985 7.25172e-19)
(17.5959 3.28579 4.77228e-19)
(18.0358 3.24164 0)
(18.4243 3.20232 2.2911e-19)
(18.7742 3.16311 0)
(19.0861 3.13946 -1.03055e-19)
(14.9823 4.63785 0)
(14.9673 4.66717 -2.1358e-18)
(14.9633 4.71743 -2.11742e-18)
(14.9189 4.79224 -2.07212e-22)
(14.8601 4.86937 6.30053e-18)
(14.7686 4.94748 -2.40392e-18)
(14.6634 4.9983 0)
(14.57 5.00242 0)
(14.5215 4.94196 -1.15425e-23)
(14.5513 4.84188 -1.42838e-19)
(14.6344 4.70681 -2.22273e-20)
(14.7587 4.56476 -5.07146e-19)
(14.8687 4.32616 1.39112e-18)
(15.0904 3.94356 0)
(15.5227 3.60521 1.03524e-18)
(16.0059 3.36637 -7.52851e-19)
(16.5354 3.16072 5.07573e-19)
(17.0785 3.00533 4.47818e-20)
(17.5615 2.88023 0)
(17.9903 2.74314 0)
(18.3602 2.61141 -1.09629e-19)
(18.6891 2.48704 -3.29662e-19)
(18.9837 2.39286 2.12916e-19)
(14.9831 4.63714 0)
(14.9682 4.66745 8.50033e-23)
(14.9647 4.71861 2.1203e-18)
(14.9207 4.79527 -1.93244e-18)
(14.8621 4.87505 -3.15957e-18)
(14.7703 4.95703 -5.5597e-22)
(14.6636 5.01224 -1.60339e-18)
(14.5675 5.02022 -7.11331e-19)
(14.5161 4.96139 1.89665e-19)
(14.5433 4.8597 0)
(14.6221 4.71979 -2.77416e-20)
(14.7343 4.56829 -4.58215e-19)
(14.8228 4.30385 0)
(15.0282 3.86903 -2.41743e-20)
(15.4621 3.47383 1.11965e-18)
(15.9454 3.17582 0)
(16.479 2.89992 -6.41941e-20)
(17.0121 2.67643 -8.69224e-21)
(17.4704 2.47284 6.66114e-19)
(17.8694 2.24992 0)
(18.1976 2.04266 0)
(18.4877 1.84135 1.76718e-19)
(18.7452 1.6818 -6.4333e-19)
(14.984 4.6364 4.26813e-23)
(14.9691 4.66772 -5.63329e-23)
(14.9662 4.71975 0)
(14.9225 4.79824 -1.95682e-18)
(14.8641 4.88067 1.55553e-21)
(14.772 4.96653 -1.11494e-21)
(14.664 5.02623 1.60456e-18)
(14.565 5.03821 7.13004e-19)
(14.5108 4.98113 -1.89905e-19)
(14.5353 4.87801 -1.88258e-19)
(14.6094 4.73391 -2.24581e-19)
(14.7075 4.57382 4.65633e-19)
(14.7708 4.28287 6.93696e-19)
(14.9565 3.79323 6.81512e-19)
(15.3882 3.33926 -1.10376e-18)
(15.8683 2.98054 4.78469e-20)
(16.3999 2.63657 -6.36879e-19)
(16.9089 2.35066 -2.94999e-19)
(17.3308 2.07505 -2.74076e-19)
(17.6827 1.78211 2.05529e-19)
(17.9523 1.51098 -2.65724e-19)
(18.1971 1.24915 0)
(18.4043 1.04027 2.69154e-19)
(14.9848 4.63565 0)
(14.97 4.66797 -2.20341e-18)
(14.9676 4.72086 -2.1685e-18)
(14.9244 4.80116 1.93755e-18)
(14.8662 4.88621 -1.60243e-18)
(14.7739 4.97597 0)
(14.6645 5.04024 -1.25736e-21)
(14.5627 5.05637 1.66851e-21)
(14.5055 5.00118 -5.50343e-20)
(14.5272 4.89684 2.90053e-19)
(14.5962 4.74928 -1.5547e-19)
(14.6783 4.58156 -2.2226e-21)
(14.7125 4.26353 -4.21485e-21)
(14.8749 3.71686 -7.12304e-19)
(15.3009 3.20234 0)
(15.7757 2.78235 8.36988e-19)
(16.2996 2.37457 -5.7499e-19)
(16.7751 2.03334 3.95568e-19)
(17.152 1.69696 1.41681e-19)
(17.438 1.35165 1.95399e-20)
(17.6528 1.03125 -2.73917e-19)
(17.8389 0.722169 1.99785e-19)
(17.9944 0.480009 3.08626e-19)
(14.9856 4.63488 -1.06073e-18)
(14.9709 4.6682 -1.50441e-20)
(14.969 4.72194 2.17132e-18)
(14.9262 4.80402 1.9595e-18)
(14.8683 4.89169 3.2141e-18)
(14.7759 4.98535 2.41668e-18)
(14.6652 5.05427 1.25333e-21)
(14.5606 5.07469 -1.66327e-21)
(14.5002 5.02151 5.50996e-20)
(14.5191 4.91617 -1.01163e-19)
(14.5828 4.76597 2.77805e-19)
(14.6469 4.59188 -3.52898e-19)
(14.6478 4.24657 -7.06365e-19)
(14.7832 3.6407 7.45358e-19)
(15.2003 3.06332 -3.95737e-20)
(15.6679 2.58194 -7.40738e-19)
(16.1803 2.11635 5.8656e-19)
(16.6155 1.72844 -5.82069e-19)
(16.9423 1.34916 -1.46794e-19)
(17.1515 0.95925 0)
(17.3168 0.607174 3.01233e-19)
(17.441 0.272341 -4.04871e-19)
(17.543 0.00555609 6.08266e-19)
(14.9863 4.6341 1.06191e-18)
(14.9717 4.66842 3.34319e-18)
(14.9704 4.72298 2.202e-18)
(14.9281 4.80683 -1.98269e-18)
(14.8705 4.89709 -1.61146e-18)
(14.778 4.99467 -2.41896e-18)
(14.666 5.06831 -1.60384e-18)
(14.5586 5.09317 0)
(14.495 5.04211 -1.80406e-20)
(14.5112 4.93602 -1.16902e-19)
(14.5693 4.78417 -1.20586e-19)
(14.6133 4.60535 3.53956e-19)
(14.5764 4.23245 0)
(14.681 3.56425 -6.99243e-19)
(15.0862 2.92114 5.43226e-19)
(15.5464 2.3791 -4.35459e-19)
(16.0483 1.86362 1.46767e-19)
(16.4339 1.43952 2.01014e-19)
(16.7003 1.03399 -5.38897e-19)
(16.8431 0.611405 3.70406e-19)
(16.9485 0.238187 0)
(17.0211 -0.102179 -8.50495e-19)
(17.0709 -0.381739 1.25627e-18)
(14.9871 4.6333 0)
(14.9726 4.66862 -1.12057e-18)
(14.9718 4.72399 -2.20386e-18)
(14.93 4.80957 1.98488e-18)
(14.8728 4.90242 1.21683e-22)
(14.7802 5.00392 -1.12649e-21)
(14.6671 5.08237 8.02767e-19)
(14.5567 5.1118 0)
(14.49 5.06297 1.80605e-20)
(14.5035 4.9564 -9.93673e-21)
(14.5558 4.80406 0)
(14.5778 4.62213 -1.31728e-19)
(14.4978 4.22061 0)
(14.5675 3.48702 5.57127e-20)
(14.9576 2.77621 -1.24236e-18)
(15.4139 2.17391 3.35251e-19)
(15.9101 1.61917 1.40963e-19)
(16.2315 1.17521 -5.29503e-19)
(16.4264 0.749952 2.62337e-19)
(16.524 0.309775 3.8542e-19)
(16.5653 -0.0745141 -6.35459e-19)
(16.5943 -0.412964 5.89613e-19)
(16.5971 -0.692242 -2.29389e-18)
(14.9878 4.63249 1.08206e-18)
(14.9734 4.6688 -1.13682e-18)
(14.9732 4.72497 1.11632e-18)
(14.9319 4.81225 9.88333e-22)
(14.8751 4.90766 -1.58447e-21)
(14.7826 5.01309 2.31074e-21)
(14.6683 5.09642 8.01317e-19)
(14.5551 5.13056 -2.20892e-21)
(14.485 5.08409 7.35513e-22)
(14.496 4.97732 -1.16358e-20)
(14.5425 4.82563 -8.73479e-22)
(14.5403 4.64218 1.21477e-19)
(14.4117 4.21146 1.44055e-20)
(14.442 3.41038 -5.74722e-20)
(14.8155 2.6295 7.15964e-19)
(15.2774 1.96614 0)
(15.7624 1.38859 2.55212e-19)
(16.0106 0.93961 3.5359e-19)
(16.137 0.492537 -2.4562e-19)
(16.1999 0.0463156 6.77511e-19)
(16.1849 -0.335634 -3.40432e-19)
(16.1751 -0.666098 8.01652e-20)
(16.1393 -0.932357 1.14482e-18)
(14.9885 4.63167 -2.17172e-18)
(14.9743 4.66897 1.13808e-18)
(14.9746 4.72591 6.65868e-21)
(14.9339 4.81488 0)
(14.8775 4.91282 0)
(14.785 5.02218 1.21432e-18)
(14.6698 5.11047 8.00083e-19)
(14.5536 5.14946 0)
(14.4802 5.10544 -5.39259e-22)
(14.4888 4.99873 1.39644e-19)
(14.5295 4.84884 2.05377e-21)
(14.501 4.66604 -1.56334e-21)
(14.3173 4.20658 -3.10419e-20)
(14.3037 3.33456 1.01013e-19)
(14.6634 2.47751 -7.65461e-20)
(15.1464 1.75661 0)
(15.5922 1.17184 -3.69127e-19)
(15.7804 0.731156 1.10693e-21)
(15.8494 0.260042 -6.21013e-19)
(15.873 -0.184334 2.90915e-19)
(15.816 -0.550203 4.43264e-19)
(15.7703 -0.868897 -7.42685e-19)
(15.7072 -1.11372 0)
(14.9892 4.63083 2.18482e-18)
(14.9751 4.66913 -1.18636e-22)
(14.976 4.72682 -1.12555e-18)
(14.9358 4.81744 0)
(14.88 4.9179 0)
(14.7876 5.03119 -1.00255e-21)
(14.6714 5.12451 -1.59852e-18)
(14.5524 5.16848 0)
(14.4754 5.127 2.7221e-20)
(14.482 5.02057 0)
(14.5169 4.87389 0)
(14.4601 4.69461 -9.23859e-21)
(14.2138 4.20662 1.26169e-20)
(14.1512 3.25989 3.71187e-19)
(14.504 2.31882 7.88718e-20)
(15.0207 1.553 -9.35138e-20)
(15.3923 0.966016 3.5297e-19)
(15.5416 0.541262 0)
(15.5722 0.0532435 1.99216e-19)
(15.5488 -0.385996 0)
(15.4658 -0.726119 7.83005e-20)
(15.3905 -1.02687 1.24645e-19)
(15.3072 -1.24969 0)
(14.9899 4.62999 -1.64687e-18)
(14.9759 4.66926 5.81704e-19)
(14.9774 4.72769 0)
(14.9378 4.81993 -1.01819e-18)
(14.8824 4.9229 8.23319e-19)
(14.7903 5.04011 -1.21628e-18)
(14.6732 5.13852 7.99968e-19)
(14.5513 5.18761 3.42993e-19)
(14.4707 5.14873 -2.78586e-20)
(14.4757 5.04282 -2.17814e-22)
(14.5049 4.90108 2.86e-22)
(14.4179 4.72914 8.17795e-21)
(14.1001 4.21209 3.13583e-20)
(13.9842 3.18652 -5.45798e-19)
(14.3389 2.15851 8.09247e-20)
(14.886 1.35688 0)
(15.1733 0.782512 0)
(15.2955 0.362692 0)
(15.307 -0.134086 0)
(15.2377 -0.561492 -4.20235e-20)
(15.1333 -0.874132 -3.31126e-19)
(15.0371 -1.14997 3.17414e-19)
(14.9445 -1.35014 0)
(14.9905 4.62914 5.51257e-19)
(14.9767 4.66938 -1.16828e-18)
(14.9788 4.72853 0)
(14.9398 4.82237 1.0195e-18)
(14.885 4.9278 -1.65175e-18)
(14.7931 5.04894 0)
(14.6752 5.15251 0)
(14.5504 5.20684 -3.42786e-19)
(14.4661 5.17062 0)
(14.4698 5.06552 -1.01788e-19)
(14.4938 4.93079 4.51511e-20)
(14.3747 4.77103 -2.40099e-20)
(13.9748 4.22221 2.646e-19)
(13.8037 3.10229 0)
(14.1754 1.99143 0)
(14.7342 1.16543 6.87215e-20)
(14.9585 0.625724 -8.85935e-20)
(15.0602 0.197221 0)
(15.0583 -0.298497 -3.97521e-20)
(14.9472 -0.709856 4.28655e-20)
(14.82 -0.999782 1.61559e-19)
(14.71 -1.24777 -2.34549e-19)
(14.6132 -1.42491 0)
(14.9911 4.62827 -9.17789e-23)
(14.9775 4.66948 1.17723e-18)
(14.9802 4.72934 3.38339e-22)
(14.9418 4.82474 5.13645e-19)
(14.8876 4.93261 8.28401e-19)
(14.7961 5.05766 -6.08222e-19)
(14.6774 5.16647 -1.56631e-21)
(14.5496 5.22617 1.72038e-19)
(14.4616 5.19264 5.27442e-20)
(14.4645 5.08874 1.00816e-19)
(14.4837 4.96304 -4.5335e-20)
(14.3307 4.81936 1.58559e-20)
(13.8343 4.23795 -2.68091e-19)
(13.6108 3.00373 -6.47051e-20)
(14.03 1.79731 8.27056e-20)
(14.5797 0.983445 5.06994e-20)
(14.7689 0.476918 -6.54958e-20)
(14.8407 0.0448662 0)
(14.8188 -0.433963 4.04252e-20)
(14.6801 -0.827732 0)
(14.5377 -1.10184 -1.48939e-20)
(14.4184 -1.3237 0)
(14.3171 -1.4729 7.51629e-22)
(14.9918 4.6274 -2.80561e-19)
(14.9784 4.66957 -5.90773e-19)
(14.9816 4.73011 -5.81257e-19)
(14.9438 4.82704 1.1943e-21)
(14.8902 4.93733 1.50179e-21)
(14.7991 5.06629 -1.45675e-21)
(14.6798 5.1804 3.98044e-19)
(14.5491 5.24559 1.90736e-21)
(14.4572 5.21479 -5.24362e-20)
(14.4598 5.1125 9.43185e-23)
(14.475 4.99799 -7.15713e-20)
(14.2867 4.87327 0)
(13.6745 4.25912 -3.11892e-20)
(13.4016 2.91427 4.38308e-20)
(13.8938 1.59064 1.5454e-19)
(14.4302 0.809892 0)
(14.5939 0.327049 0)
(14.6317 -0.100997 1.53659e-20)
(14.5743 -0.561071 0)
(14.4296 -0.930628 -4.87488e-20)
(14.2736 -1.17984 4.69646e-20)
(14.1501 -1.37428 -1.29916e-20)
(14.0476 -1.50434 -1.37211e-19)
(14.9923 4.62653 5.63199e-19)
(14.9791 4.66964 2.99617e-19)
(14.9829 4.73084 8.73761e-19)
(14.9458 4.82928 -5.18771e-19)
(14.8929 4.94196 -4.16655e-19)
(14.8022 5.07481 9.15674e-19)
(14.6824 5.19427 -3.97923e-19)
(14.5487 5.26508 -1.71744e-19)
(14.4528 5.23708 6.1841e-22)
(14.456 5.13678 -1.4425e-21)
(14.4677 5.03632 7.1473e-20)
(14.2424 4.93575 4.25289e-20)
(13.4991 4.27091 3.88201e-20)
(13.1987 2.81396 3.02845e-19)
(13.7508 1.42088 -1.57227e-19)
(14.2675 0.645449 0)
(14.4065 0.18296 0)