/*--------------------------------*- C++ -*----------------------------------*\
  =========                 |
  \\      /  F ield         | OpenFOAM: The Open Source CFD Toolbox
   \\    /   O peration     | Website:  https://openfoam.org
    \\  /    A nd           | Version:  7
     \\/     M anipulation  |
\*---------------------------------------------------------------------------*/
FoamFile
{
    version     2.0;
    format      ascii;
    class       volScalarField;
    location    "50";
    object      yPlus;
}
// * * * * * * * * * * * * * * * * * * * * * * * * * * * * * * * * * * * * * //

dimensions      [0 0 0 0 0 0 0];

internalField   uniform 0;

boundaryField
{
    inlet
    {
        type            calculated;
        value           uniform 0;
    }
    outlet
    {
        type            calculated;
        value           uniform 0;
    }
    suction_side
    {
        type            calculated;
        value           nonuniform List<scalar> 
56
(
24.7946
26.676
29.2504
31.7636
34.7371
38.0835
41.2429
44.6675
48.0723
49.9562
52.9625
52.6893
49.4631
40.4361
25.3828
27.7199
34.951
38.2625
37.6206
35.1814
33.1515
31.8281
30.4311
31.1102
32.2912
36.6999
36.9203
21.6112
19.5889
23.827
26.033
26.6957
26.9204
27.0196
27.0664
26.9321
26.4959
25.7746
24.7621
23.8353
22.9382
22.3221
21.643
20.9048
20.4338
19.8654
19.0224
18.6172
19.0469
21.7302
24.9179
24.1564
19.2867
15.3467
13.7827
12.1764
)
;
    }
    pressure_side
    {
        type            calculated;
        value           nonuniform List<scalar> 
56
(
34.5247
34.0544
34.6006
34.9634
35.1361
35.3286
35.3943
35.555
35.771
36.0103
36.269
36.4968
36.6909
36.8079
36.8531
36.802
36.731
36.6212
36.551
36.5295
36.5678
36.6311
36.7244
36.817
36.932
37.0273
37.1204
37.2339
37.3711
37.5828
37.8949
38.3423
38.7873
38.6111
37.4753
36.0096
34.2113
31.9849
29.1391
25.3698
21.421
17.4593
13.8766
11.2727
11.2453
10.8388
10.4612
11.6154
12.1189
13.3006
13.6455
16.1493
16.6798
19.098
20.8234
22.711
)
;
    }
    trailing_edge
    {
        type            calculated;
        value           nonuniform List<scalar> 2(126.265 89.2225);
    }
    defaultFaces
    {
        type            empty;
    }
}


// ************************************************************************* //
