/*--------------------------------*- C++ -*----------------------------------*\
  =========                 |
  \\      /  F ield         | OpenFOAM: The Open Source CFD Toolbox
   \\    /   O peration     | Website:  https://openfoam.org
    \\  /    A nd           | Version:  7
     \\/     M anipulation  |
\*---------------------------------------------------------------------------*/
FoamFile
{
    version     2.0;
    format      ascii;
    class       volSymmTensorField;
    location    "1000";
    object      devReff;
}
// * * * * * * * * * * * * * * * * * * * * * * * * * * * * * * * * * * * * * //

dimensions      [0 2 -2 0 0 0 0];

internalField   nonuniform List<symmTensor> 
180
(
(4.32486e-21 -0.0200035 -0 8.36237e-22 -0 -5.1611e-21)
(-9.84639e-21 -0.0271392 -0 7.18668e-21 -0 2.65971e-21)
(-6.76294e-22 -0.0139478 -0 1.35259e-21 -0 -6.76294e-22)
(-6.23358e-21 -0.0142811 -0 1.24672e-20 -0 -6.23358e-21)
(1.53121e-21 -0.0132597 -0 -3.06242e-21 -0 1.53121e-21)
(-1.09719e-20 -0.0139236 -0 2.19437e-20 -0 -1.09719e-20)
(1.15154e-20 -0.0127843 -0 -2.30307e-20 -0 1.15154e-20)
(-5.69326e-21 -0.0134126 -0 1.13865e-20 -0 -5.69326e-21)
(3.13033e-20 -0.0122766 -0 -6.26066e-20 -0 3.13033e-20)
(-2.43398e-20 -0.0129298 -0 4.86795e-20 -0 -2.43398e-20)
(2.23499e-20 -0.0119861 -0 -4.46997e-20 -0 2.23499e-20)
(-2.70419e-20 -0.0125085 -0 5.40838e-20 -0 -2.70419e-20)
(1.04518e-20 -0.011791 -0 -2.09036e-20 -0 1.04518e-20)
(-1.01478e-20 -0.012141 -0 2.02957e-20 -0 -1.01478e-20)
(4.40174e-21 -0.0116312 -0 -8.80347e-21 -0 4.40174e-21)
(-2.42773e-22 -0.0118128 -0 4.85547e-22 -0 -2.42773e-22)
(-9.28187e-21 -0.0114709 -0 1.85637e-20 -0 -9.28187e-21)
(-1.35056e-20 -0.0115099 -0 2.70111e-20 -0 -1.35056e-20)
(1.77338e-20 -0.0112934 -0 -3.54677e-20 -0 1.77338e-20)
(-2.87466e-20 -0.0112218 -0 5.74933e-20 -0 -2.87466e-20)
(5.26272e-20 -0.0110924 -0 -1.05254e-19 -0 5.26272e-20)
(2.09255e-20 -0.0109413 -0 -4.18511e-20 -0 2.09255e-20)
(-4.15862e-21 -0.0108669 -0 8.31723e-21 -0 -4.15862e-21)
(7.72484e-20 -0.0106634 -0 -1.54497e-19 -0 7.72484e-20)
(-1.34838e-19 -0.0106181 -0 2.69676e-19 -0 -1.34838e-19)
(1.60448e-19 -0.010385 -0 -3.20897e-19 -0 1.60448e-19)
(-2.33052e-19 -0.0103485 -0 4.66104e-19 -0 -2.33052e-19)
(2.54975e-19 -0.0101044 -0 -5.09949e-19 -0 2.54975e-19)
(-1.89155e-19 -0.0100614 -0 3.78311e-19 -0 -1.89155e-19)
(2.06402e-19 -0.00982065 -0 -4.12804e-19 -0 2.06402e-19)
(1.83819e-20 -0.0097602 -0 -3.67639e-20 -0 1.83819e-20)
(-5.91863e-21 -0.00953346 -0 1.18373e-20 -0 -5.91863e-21)
(1.70102e-19 -0.00944854 -0 -3.40204e-19 -0 1.70102e-19)
(-1.62085e-19 -0.00924287 -0 3.2417e-19 -0 -1.62085e-19)
(4.43844e-20 -0.00912975 -0 -8.87687e-20 -0 4.43844e-20)
(-4.1549e-20 -0.00894918 -0 8.30981e-20 -0 -4.1549e-20)
(-7.84782e-20 -0.00880678 -0 1.56956e-19 -0 -7.84782e-20)
(7.82349e-20 -0.0086528 -0 -1.5647e-19 -0 7.82349e-20)
(-5.59282e-20 -0.0084821 -0 1.11856e-19 -0 -5.59282e-20)
(5.49573e-20 -0.00835425 -0 -1.09915e-19 -0 5.49573e-20)
(-3.88378e-20 -0.00815766 -0 7.76757e-20 -0 -3.88378e-20)
(3.74894e-20 -0.00805408 -0 -7.49789e-20 -0 3.74894e-20)
(-2.60861e-20 -0.00783496 -0 5.21722e-20 -0 -2.60861e-20)
(2.51457e-20 -0.00775289 -0 -5.02914e-20 -0 2.51457e-20)
(-1.57399e-20 -0.00751506 -0 3.14798e-20 -0 -1.57399e-20)
(1.65176e-20 -0.00745131 -0 -3.30351e-20 -0 1.65176e-20)
(-8.56446e-21 -0.00719872 -0 1.71289e-20 -0 -8.56446e-21)
(1.0026e-20 -0.00714995 -0 -2.00521e-20 -0 1.0026e-20)
(-4.28751e-21 -0.00688643 -0 8.57501e-21 -0 -4.28751e-21)
(5.74627e-21 -0.00684944 -0 -1.14925e-20 -0 5.74627e-21)
(-6.77684e-22 -0.00657847 -0 1.35537e-21 -0 -6.77684e-22)
(2.88512e-21 -0.00655037 -0 -5.77025e-21 -0 2.88512e-21)
(2.26862e-21 -0.006275 -0 -4.53724e-21 -0 2.26862e-21)
(8.14179e-22 -0.00625327 -0 -1.62836e-21 -0 8.14179e-22)
(3.96892e-21 -0.00597612 -0 -7.93785e-21 -0 3.96892e-21)
(-9.03974e-22 -0.00595865 -0 1.80795e-21 -0 -9.03974e-22)
(5.1889e-21 -0.00568183 -0 -1.03778e-20 -0 5.1889e-21)
(-1.97282e-21 -0.00566694 -0 3.94565e-21 -0 -1.97282e-21)
(6.50804e-21 -0.00539214 -0 -1.30161e-20 -0 6.50804e-21)
(-2.88071e-21 -0.00537855 -0 5.76142e-21 -0 -2.88071e-21)
(7.50101e-21 -0.00510705 -0 -1.5002e-20 -0 7.50101e-21)
(-4.32372e-21 -0.0050938 -0 8.64744e-21 -0 -4.32372e-21)
(8.34884e-21 -0.00482654 -0 -1.66977e-20 -0 8.34884e-21)
(-5.18212e-21 -0.00481298 -0 1.03642e-20 -0 -5.18212e-21)
(8.65443e-21 -0.00455064 -0 -1.73089e-20 -0 8.65443e-21)
(-5.96886e-21 -0.00453633 -0 1.19377e-20 -0 -5.96886e-21)
(8.82184e-21 -0.00427935 -0 -1.76437e-20 -0 8.82184e-21)
(-7.15171e-21 -0.00426405 -0 1.43034e-20 -0 -7.15171e-21)
(9.41542e-21 -0.00401273 -0 -1.88308e-20 -0 9.41542e-21)
(-8.28252e-21 -0.00399633 -0 1.6565e-20 -0 -8.28252e-21)
(9.90403e-21 -0.00375083 -0 -1.98081e-20 -0 9.90403e-21)
(-8.9022e-21 -0.00373332 -0 1.78044e-20 -0 -8.9022e-21)
(1.03177e-20 -0.00349372 -0 -2.06354e-20 -0 1.03177e-20)
(-9.47116e-21 -0.00347515 -0 1.89423e-20 -0 -9.47116e-21)
(1.06354e-20 -0.00324148 -0 -2.12708e-20 -0 1.06354e-20)
(-1.04398e-20 -0.00322195 -0 2.08795e-20 -0 -1.04398e-20)
(1.09128e-20 -0.00299421 -0 -2.18255e-20 -0 1.09128e-20)
(-1.10446e-20 -0.00297382 -0 2.20893e-20 -0 -1.10446e-20)
(1.11689e-20 -0.00275199 -0 -2.23379e-20 -0 1.11689e-20)
(-1.15278e-20 -0.00273088 -0 2.30557e-20 -0 -1.15278e-20)
(1.14243e-20 -0.00251494 -0 -2.28486e-20 -0 1.14243e-20)
(-1.21703e-20 -0.00249321 -0 2.43406e-20 -0 -1.21703e-20)
(1.16673e-20 -0.00228315 -0 -2.33346e-20 -0 1.16673e-20)
(-1.27152e-20 -0.00226093 -0 2.54304e-20 -0 -1.27152e-20)
(1.16731e-20 -0.00205673 -0 -2.33462e-20 -0 1.16731e-20)
(-1.29811e-20 -0.0020341 -0 2.59622e-20 -0 -1.29811e-20)
(1.16893e-20 -0.00183578 -0 -2.33786e-20 -0 1.16893e-20)
(-1.31889e-20 -0.00181283 -0 2.63779e-20 -0 -1.31889e-20)
(1.19731e-20 -0.0016204 -0 -2.39462e-20 -0 1.19731e-20)
(-1.34718e-20 -0.00159719 -0 2.69435e-20 -0 -1.34718e-20)
(1.20928e-20 -0.00141067 -0 -2.41857e-20 -0 1.20928e-20)
(-1.36734e-20 -0.00138726 -0 2.73469e-20 -0 -1.36734e-20)
(1.22081e-20 -0.00120669 -0 -2.44163e-20 -0 1.22081e-20)
(-1.39656e-20 -0.00118312 -0 2.79312e-20 -0 -1.39656e-20)
(1.24656e-20 -0.00100852 -0 -2.49312e-20 -0 1.24656e-20)
(-1.41997e-20 -0.00098483 -0 2.83994e-20 -0 -1.41997e-20)
(1.27254e-20 -0.000816249 -0 -2.54509e-20 -0 1.27254e-20)
(-1.44008e-20 -0.000792452 -0 2.88017e-20 -0 -1.44008e-20)
(1.29172e-20 -0.000629931 -0 -2.58344e-20 -0 1.29172e-20)
(-1.45683e-20 -0.000606045 -0 2.91366e-20 -0 -1.45683e-20)
(1.30885e-20 -0.000449622 -0 -2.6177e-20 -0 1.30885e-20)
(-1.46866e-20 -0.000425656 -0 2.93732e-20 -0 -1.46866e-20)
(1.32989e-20 -0.00027537 -0 -2.65978e-20 -0 1.32989e-20)
(-1.47774e-20 -0.000251329 -0 2.95548e-20 -0 -1.47774e-20)
(1.3517e-20 -0.000107212 -0 -2.7034e-20 -0 1.3517e-20)
(-1.4883e-20 -8.30982e-05 -0 2.97661e-20 -0 -1.4883e-20)
(1.37342e-20 5.48221e-05 -0 -2.74684e-20 -0 1.37342e-20)
(-1.49651e-20 7.90083e-05 -0 2.99303e-20 -0 -1.49651e-20)
(1.39595e-20 0.000210711 -0 -2.79189e-20 -0 1.39595e-20)
(-1.50221e-20 0.000234971 -0 3.00441e-20 -0 -1.50221e-20)
(1.41892e-20 0.000360441 -0 -2.83785e-20 -0 1.41892e-20)
(-1.508e-20 0.000384778 -0 3.01601e-20 -0 -1.508e-20)
(1.44587e-20 0.000504009 -0 -2.89173e-20 -0 1.44587e-20)
(-1.51692e-20 0.000528425 -0 3.03385e-20 -0 -1.51692e-20)
(1.47035e-20 0.000641421 -0 -2.94071e-20 -0 1.47035e-20)
(-1.52655e-20 0.000665918 -0 3.05309e-20 -0 -1.52655e-20)
(1.48923e-20 0.000772688 -0 -2.97847e-20 -0 1.48923e-20)
(-1.53734e-20 0.000797269 -0 3.07467e-20 -0 -1.53734e-20)
(1.51494e-20 0.000897834 -0 -3.02988e-20 -0 1.51494e-20)
(-1.54864e-20 0.0009225 -0 3.09729e-20 -0 -1.54864e-20)
(1.54739e-20 0.00101689 -0 -3.09478e-20 -0 1.54739e-20)
(-1.56232e-20 0.00104164 -0 3.12465e-20 -0 -1.56232e-20)
(1.56739e-20 0.00112989 -0 -3.13477e-20 -0 1.56739e-20)
(-1.566e-20 0.00115474 -0 3.13199e-20 -0 -1.566e-20)
(1.58891e-20 0.0012369 -0 -3.17781e-20 -0 1.58891e-20)
(-1.57086e-20 0.00126183 -0 3.14171e-20 -0 -1.57086e-20)
(1.62356e-20 0.00133797 -0 -3.24712e-20 -0 1.62356e-20)
(-1.58711e-20 0.00136299 -0 3.17421e-20 -0 -1.58711e-20)
(1.64365e-20 0.00143317 -0 -3.2873e-20 -0 1.64365e-20)
(-1.60372e-20 0.00145828 -0 3.20745e-20 -0 -1.60372e-20)
(1.66243e-20 0.00152259 -0 -3.32485e-20 -0 1.66243e-20)
(-1.62348e-20 0.00154778 -0 3.24696e-20 -0 -1.62348e-20)
(1.69392e-20 0.00160631 -0 -3.38784e-20 -0 1.69392e-20)
(-1.64574e-20 0.0016316 -0 3.29148e-20 -0 -1.64574e-20)
(1.72328e-20 0.00168445 -0 -3.44655e-20 -0 1.72328e-20)
(-1.66994e-20 0.00170983 -0 3.33988e-20 -0 -1.66994e-20)
(1.7489e-20 0.00175713 -0 -3.49779e-20 -0 1.7489e-20)
(-1.69814e-20 0.00178259 -0 3.39627e-20 -0 -1.69814e-20)
(1.77371e-20 0.00182447 -0 -3.54743e-20 -0 1.77371e-20)
(-1.70468e-20 0.00185002 -0 3.40936e-20 -0 -1.70468e-20)
(1.80135e-20 0.00188663 -0 -3.6027e-20 -0 1.80135e-20)
(-1.71223e-20 0.00191227 -0 3.42445e-20 -0 -1.71223e-20)
(1.83099e-20 0.00194376 -0 -3.66198e-20 -0 1.83099e-20)
(-1.74305e-20 0.00196948 -0 3.48609e-20 -0 -1.74305e-20)
(1.86314e-20 0.00199603 -0 -3.72629e-20 -0 1.86314e-20)
(-1.76892e-20 0.00202185 -0 3.53785e-20 -0 -1.76892e-20)
(1.87032e-20 0.00204363 -0 -3.74065e-20 -0 1.87032e-20)
(-1.79474e-20 0.00206954 -0 3.58947e-20 -0 -1.79474e-20)
(1.87577e-20 0.00208676 -0 -3.75153e-20 -0 1.87577e-20)
(-1.82374e-20 0.00211275 -0 3.64747e-20 -0 -1.82374e-20)
(1.90223e-20 0.00212561 -0 -3.80446e-20 -0 1.90223e-20)
(-1.85478e-20 0.0021517 -0 3.70956e-20 -0 -1.85478e-20)
(1.92156e-20 0.0021604 -0 -3.84313e-20 -0 1.92156e-20)
(-1.86169e-20 0.00218659 -0 3.72338e-20 -0 -1.86169e-20)
(1.93769e-20 0.00219135 -0 -3.87538e-20 -0 1.93769e-20)
(-1.86879e-20 0.00221763 -0 3.73759e-20 -0 -1.86879e-20)
(1.95498e-20 0.00221866 -0 -3.90997e-20 -0 1.95498e-20)
(-1.89923e-20 0.00224505 -0 3.79845e-20 -0 -1.89923e-20)
(1.97324e-20 0.00224253 -0 -3.94649e-20 -0 1.97324e-20)
(-1.92549e-20 0.00226903 -0 3.85097e-20 -0 -1.92549e-20)
(1.99171e-20 0.00226312 -0 -3.98342e-20 -0 1.99171e-20)
(-1.94711e-20 0.00228973 -0 3.89423e-20 -0 -1.94711e-20)
(2.01008e-20 0.00228047 -0 -4.02016e-20 -0 2.01008e-20)
(-1.96372e-20 0.0023072 -0 3.92744e-20 -0 -1.96372e-20)
(2.02875e-20 0.00229441 -0 -4.0575e-20 -0 2.02875e-20)
(-1.97867e-20 0.00232126 -0 3.95733e-20 -0 -1.97867e-20)
(2.01931e-20 0.0023043 -0 -4.03863e-20 -0 2.01931e-20)
(-1.99419e-20 0.0023313 -0 3.98838e-20 -0 -1.99419e-20)
(2.00428e-20 0.00230859 -0 -4.00856e-20 -0 2.00428e-20)
(-2.00761e-20 0.00233575 -0 4.01521e-20 -0 -2.00761e-20)
(2.00411e-20 0.00230396 -0 -4.00822e-20 -0 2.00411e-20)
(-1.98807e-20 0.00233132 -0 3.97614e-20 -0 -1.98807e-20)
(1.98295e-20 0.00228375 -0 -3.9659e-20 -0 1.98295e-20)
(-1.94957e-20 0.00231134 -0 3.89914e-20 -0 -1.94957e-20)
(1.95828e-20 0.00228207 -0 -3.91657e-20 -0 1.95828e-20)
(-1.93452e-20 0.00230994 -0 3.86905e-20 -0 -1.93452e-20)
(1.92839e-20 0.00230625 -0 -3.85677e-20 -0 1.92839e-20)
(-1.90927e-20 0.00233446 -0 3.81854e-20 -0 -1.90927e-20)
(1.71285e-20 0.00122361 -0 -3.42569e-20 -0 1.71285e-20)
(-1.69633e-20 0.00123781 -0 3.39266e-20 -0 -1.69633e-20)
)
;

boundaryField
{
    inlet
    {
        type            cyclic;
    }
    outlet
    {
        type            cyclic;
    }
    bottom
    {
        type            symmetry;
    }
    top
    {
        type            calculated;
        value           nonuniform List<symmTensor> 2((1.75997e-21 -0.0128718 -0 3.83196e-22 -0 -2.14316e-21) (-3.69774e-21 -0.0138101 -0 3.49235e-21 -0 2.0539e-22));
    }
    frontAndBack
    {
        type            empty;
    }
}


// ************************************************************************* //
