/*--------------------------------*- C++ -*----------------------------------*\
  =========                 |
  \\      /  F ield         | OpenFOAM: The Open Source CFD Toolbox
   \\    /   O peration     | Website:  https://openfoam.org
    \\  /    A nd           | Version:  7
     \\/     M anipulation  |
\*---------------------------------------------------------------------------*/
FoamFile
{
    version     2.0;
    format      ascii;
    class       volScalarField;
    location    "1000";
    object      k;
}
// * * * * * * * * * * * * * * * * * * * * * * * * * * * * * * * * * * * * * //

dimensions      [0 2 -2 0 0 0 0];

internalField   nonuniform List<scalar> 
180
(
0.0379766
0.0602229
0.0362481
0.0420745
0.0380485
0.0411785
0.0386984
0.0408607
0.0392049
0.0406229
0.0397793
0.040546
0.0404121
0.0406607
0.0410831
0.0409583
0.0417803
0.0414149
0.0425007
0.0420035
0.043246
0.042699
0.0440198
0.0434797
0.0448252
0.0443275
0.045664
0.0452279
0.0465363
0.0461692
0.0474409
0.0471419
0.0483752
0.0481389
0.0493361
0.0491543
0.0503198
0.0501836
0.0513226
0.0512232
0.0523408
0.0522701
0.0533709
0.0533218
0.0544095
0.0543764
0.0554537
0.055432
0.056501
0.0564872
0.0575491
0.0575404
0.0585958
0.0585904
0.0596396
0.0596361
0.0606788
0.0606763
0.0617122
0.0617102
0.0627386
0.0627369
0.063757
0.0637554
0.0647667
0.0647652
0.0657667
0.0657654
0.0667566
0.0667554
0.0677356
0.0677347
0.0687032
0.0687028
0.069659
0.0696591
0.0706024
0.0706031
0.0715332
0.0715346
0.0724509
0.0724529
0.0733551
0.0733579
0.0742455
0.074249
0.0751218
0.0751261
0.0759837
0.0759887
0.0768307
0.0768365
0.0776628
0.0776693
0.0784795
0.0784867
0.0792806
0.0792885
0.0800657
0.0800744
0.0808348
0.080844
0.0815874
0.0815973
0.0823233
0.0823338
0.0830423
0.0830534
0.0837442
0.0837558
0.0844286
0.0844407
0.0850954
0.0851081
0.0857443
0.0857575
0.0863752
0.0863888
0.0869878
0.0870019
0.0875818
0.0875964
0.0881572
0.0881722
0.0887137
0.0887291
0.0892511
0.0892669
0.0897693
0.0897854
0.0902681
0.0902845
0.0907472
0.090764
0.0912066
0.0912237
0.0916461
0.0916635
0.0920656
0.0920832
0.0924648
0.0924828
0.0928438
0.092862
0.0932023
0.0932207
0.0935403
0.0935589
0.0938576
0.0938764
0.0941541
0.0941731
0.0944298
0.094449
0.0946845
0.0947039
0.0949182
0.0949377
0.0951307
0.0951504
0.0953221
0.0953419
0.0954923
0.0955121
0.0956411
0.0956611
0.0957686
0.0957886
0.0958746
0.0958946
0.095959
0.0959791
0.0960217
0.0960418
0.0960626
0.0960826
0.0960811
0.0961012
0.0960771
0.0960971
)
;

boundaryField
{
    inlet
    {
        type            cyclic;
    }
    outlet
    {
        type            cyclic;
    }
    bottom
    {
        type            symmetry;
    }
    top
    {
        type            kqRWallFunction;
        value           nonuniform List<scalar> 2(0.0379766 0.0602229);
    }
    frontAndBack
    {
        type            empty;
    }
}


// ************************************************************************* //
