/*--------------------------------*- C++ -*----------------------------------*\
  =========                 |
  \\      /  F ield         | OpenFOAM: The Open Source CFD Toolbox
   \\    /   O peration     | Website:  https://openfoam.org
    \\  /    A nd           | Version:  7
     \\/     M anipulation  |
\*---------------------------------------------------------------------------*/
FoamFile
{
    version     2.0;
    format      ascii;
    class       volScalarField;
    location    "1000";
    object      nut;
}
// * * * * * * * * * * * * * * * * * * * * * * * * * * * * * * * * * * * * * //

dimensions      [0 2 -1 0 0 0 0];

internalField   nonuniform List<scalar> 
180
(
1.43035e-05
2.20412e-05
4.14513e-05
4.86138e-05
8.05319e-05
8.74505e-05
0.000128515
0.000131432
0.000178178
0.000179592
0.000231977
0.000232253
0.000290051
0.000289755
0.000352639
0.000352278
0.000419996
0.00041987
0.00049232
0.000492479
0.000569684
0.000569986
0.000652012
0.000652211
0.000739078
0.000738919
0.000830536
0.000829822
0.000925955
0.000924585
0.00102486
0.00102283
0.00112675
0.00112413
0.00123115
0.00122807
0.00133758
0.00133421
0.00144561
0.0014421
0.00155483
0.00155133
0.00166488
0.00166151
0.00177542
0.00177226
0.00188615
0.00188326
0.0019968
0.00199421
0.00210711
0.00210483
0.00221687
0.0022149
0.00232588
0.00232419
0.00243396
0.00243253
0.00254095
0.00253975
0.0026467
0.0026457
0.00275108
0.00275026
0.00285398
0.00285331
0.0029553
0.00295476
0.00305495
0.00305452
0.00315285
0.00315252
0.00324894
0.00324868
0.00334314
0.00334297
0.00343543
0.00343532
0.00352575
0.00352571
0.00361408
0.00361409
0.00370038
0.00370045
0.00378464
0.00378476
0.00386685
0.00386702
0.00394698
0.00394721
0.00402505
0.00402533
0.00410105
0.00410137
0.00417498
0.00417535
0.00424685
0.00424726
0.00431667
0.00431712
0.00438445
0.00438494
0.00445019
0.00445073
0.00451393
0.0045145
0.00457567
0.00457628
0.00463542
0.00463607
0.00469322
0.0046939
0.00474907
0.00474979
0.004803
0.00480375
0.00485503
0.0048558
0.00490517
0.00490598
0.00495345
0.00495429
0.00499989
0.00500075
0.00504451
0.00504539
0.00508732
0.00508823
0.00512836
0.00512929
0.00516763
0.00516858
0.00520515
0.00520613
0.00524095
0.00524195
0.00527505
0.00527606
0.00530745
0.00530848
0.00533818
0.00533923
0.00536726
0.00536832
0.00539469
0.00539577
0.0054205
0.00542159
0.00544469
0.0054458
0.00546729
0.0054684
0.00548829
0.00548942
0.00550772
0.00550886
0.00552559
0.00552673
0.00554189
0.00554304
0.00555664
0.0055578
0.00556984
0.005571
0.00558149
0.00558267
0.00559161
0.00559278
0.00560017
0.00560136
0.00560719
0.00560838
0.00561265
0.00561384
0.00561655
0.00561774
0.00561887
0.00562007
0.00561963
0.00562082
)
;

boundaryField
{
    inlet
    {
        type            cyclic;
    }
    outlet
    {
        type            cyclic;
    }
    bottom
    {
        type            symmetry;
    }
    top
    {
        type            nutkWallFunction;
        Cmu             0.09;
        kappa           0.41;
        E               9.8;
        value           uniform 0;
    }
    frontAndBack
    {
        type            empty;
    }
}


// ************************************************************************* //
