/*--------------------------------*- C++ -*----------------------------------*\
  =========                 |
  \\      /  F ield         | OpenFOAM: The Open Source CFD Toolbox
   \\    /   O peration     | Website:  https://openfoam.org
    \\  /    A nd           | Version:  7
     \\/     M anipulation  |
\*---------------------------------------------------------------------------*/
FoamFile
{
    version     2.0;
    format      ascii;
    class       volScalarField;
    location    "1000";
    object      omega;
}
// * * * * * * * * * * * * * * * * * * * * * * * * * * * * * * * * * * * * * //

dimensions      [0 0 -1 0 0 0 0];

internalField   nonuniform List<scalar> 
180
(
2592
2592
860.3
865.486
459.421
470.878
301.12
310.888
220.032
226.196
171.48
174.577
139.328
140.328
116.502
116.267
99.4778
98.6374
86.3274
85.2899
75.9123
74.9124
67.5138
66.6651
60.6502
59.9897
54.9814
54.5031
50.2577
49.935
46.2902
46.0899
42.9334
42.8231
40.0733
40.0256
37.6201
37.6131
35.5025
35.5199
33.6634
33.6937
32.0569
32.0925
30.646
30.6819
29.4005
29.434
28.2959
28.3256
27.3118
27.3372
26.4317
26.4528
25.6417
25.6588
24.93
24.9437
24.2871
24.2978
23.7045
23.7128
23.1753
23.1816
22.6934
22.6983
22.2538
22.2574
21.8519
21.8546
21.4839
21.4859
21.1464
21.1479
20.8364
20.8375
20.5513
20.5521
20.2888
20.2894
20.0469
20.0473
19.8237
19.824
19.6176
19.6179
19.4272
19.4274
19.2511
19.2513
19.0881
19.0883
18.9373
18.9374
18.7976
18.7976
18.6681
18.6681
18.548
18.5481
18.4367
18.4367
18.3334
18.3335
18.2376
18.2376
18.1487
18.1487
18.0661
18.0661
17.9895
17.9895
17.9183
17.9183
17.8522
17.8522
17.7909
17.7908
17.7339
17.7338
17.681
17.6809
17.6318
17.6318
17.5862
17.5862
17.5438
17.5438
17.5045
17.5045
17.468
17.468
17.4341
17.4341
17.4027
17.4026
17.3735
17.3735
17.3465
17.3464
17.3214
17.3214
17.2982
17.2982
17.2767
17.2766
17.2568
17.2567
17.2384
17.2383
17.2214
17.2213
17.2057
17.2056
17.1912
17.1912
17.1779
17.1779
17.1658
17.1657
17.1547
17.1546
17.1445
17.1445
17.1354
17.1354
17.1272
17.1272
17.1199
17.1199
17.1136
17.1135
17.1081
17.108
17.1035
17.1034
17.0997
17.0996
17.0967
17.0966
)
;

boundaryField
{
    inlet
    {
        type            cyclic;
    }
    outlet
    {
        type            cyclic;
    }
    bottom
    {
        type            symmetry;
    }
    top
    {
        beta1           0.075;
        blended         0;
        type            omegaWallFunction;
        value           uniform 2592;
    }
    frontAndBack
    {
        type            empty;
    }
}


// ************************************************************************* //
