/*--------------------------------*- C++ -*----------------------------------*\
  =========                 |
  \\      /  F ield         | OpenFOAM: The Open Source CFD Toolbox
   \\    /   O peration     | Website:  https://openfoam.org
    \\  /    A nd           | Version:  7
     \\/     M anipulation  |
\*---------------------------------------------------------------------------*/
FoamFile
{
    version     2.0;
    format      ascii;
    class       volScalarField;
    location    "1000";
    object      p;
}
// * * * * * * * * * * * * * * * * * * * * * * * * * * * * * * * * * * * * * //

dimensions      [0 2 -2 0 0 0 0];

internalField   nonuniform List<scalar> 
180
(
4.79937e-21
1.88272e-16
8.89848e-21
1.88268e-16
-7.11422e-22
1.8828e-16
9.85897e-21
1.88279e-16
9.54537e-21
1.8828e-16
7.78826e-21
1.88283e-16
3.11935e-21
1.88311e-16
-3.88449e-21
1.88347e-16
-4.91912e-20
1.88393e-16
-6.33342e-20
1.88448e-16
-3.55272e-20
1.88514e-16
-1.12508e-19
1.88591e-16
-2.02987e-19
1.88682e-16
-4.44074e-19
1.88922e-16
-2.5308e-19
1.88732e-16
-4.19131e-20
1.88521e-16
-1.46246e-21
1.88481e-16
4.21014e-20
1.88438e-16
8.61879e-20
1.88394e-16
1.33221e-19
1.88347e-16
1.80623e-19
1.883e-16
2.30681e-19
1.8825e-16
2.80988e-19
1.882e-16
3.33706e-19
1.88147e-16
3.86589e-19
1.88094e-16
4.41568e-19
1.8804e-16
4.96632e-19
1.87985e-16
5.53537e-19
1.87928e-16
6.10458e-19
1.87871e-16
6.68916e-19
1.87813e-16
7.27311e-19
1.87754e-16
7.86996e-19
1.87695e-16
8.46539e-19
1.87635e-16
9.07099e-19
1.87575e-16
9.67425e-19
1.87514e-16
1.02854e-18
1.87453e-16
1.08934e-18
1.87392e-16
1.15069e-18
1.87331e-16
1.21161e-18
1.8727e-16
1.27289e-18
1.87208e-16
1.33365e-18
1.87147e-16
1.39455e-18
1.87086e-16
1.45484e-18
1.87026e-16
1.51509e-18
1.86965e-16
1.57464e-18
1.86905e-16
1.63397e-18
1.86846e-16
1.69251e-18
1.86787e-16
1.75069e-18
1.86728e-16
1.80799e-18
1.8667e-16
1.86476e-18
1.86613e-16
1.92058e-18
1.86557e-16
1.97575e-18
1.86502e-16
2.02989e-18
1.86447e-16
2.08325e-18
1.86393e-16
2.13551e-18
1.86341e-16
2.18688e-18
1.86289e-16
2.23707e-18
1.86238e-16
2.28628e-18
1.86189e-16
2.33425e-18
1.8614e-16
2.38114e-18
1.86093e-16
2.42673e-18
1.86047e-16
2.47116e-18
1.86003e-16
2.51423e-18
1.85959e-16
2.55606e-18
1.85917e-16
2.59648e-18
1.85876e-16
2.63558e-18
1.85837e-16
2.67324e-18
1.85799e-16
2.7095e-18
1.85762e-16
2.74427e-18
1.85727e-16
2.77759e-18
1.85694e-16
2.80938e-18
1.85662e-16
2.83967e-18
1.85631e-16
2.86838e-18
1.85602e-16
2.89554e-18
1.85575e-16
2.9211e-18
1.85549e-16
2.94507e-18
1.85525e-16
2.9674e-18
1.85503e-16
2.98811e-18
1.85482e-16
3.00716e-18
1.85463e-16
3.02456e-18
1.85445e-16
3.04027e-18
1.85429e-16
3.0543e-18
1.85415e-16
3.06663e-18
1.85403e-16
3.07724e-18
1.85392e-16
3.08613e-18
1.85383e-16
3.0933e-18
1.85376e-16
3.09872e-18
1.85371e-16
3.10239e-18
1.85367e-16
3.1043e-18
1.85365e-16
3.10455e-18
1.85365e-16
)
;

boundaryField
{
    inlet
    {
        type            cyclic;
    }
    outlet
    {
        type            cyclic;
    }
    bottom
    {
        type            symmetry;
    }
    top
    {
        type            zeroGradient;
    }
    frontAndBack
    {
        type            empty;
    }
}


// ************************************************************************* //
