/*--------------------------------*- C++ -*----------------------------------*\
  =========                 |
  \\      /  F ield         | OpenFOAM: The Open Source CFD Toolbox
   \\    /   O peration     | Website:  https://openfoam.org
    \\  /    A nd           | Version:  7
     \\/     M anipulation  |
\*---------------------------------------------------------------------------*/
FoamFile
{
    version     2.0;
    format      ascii;
    class       surfaceScalarField;
    location    "1000";
    object      phi;
}
// * * * * * * * * * * * * * * * * * * * * * * * * * * * * * * * * * * * * * //

dimensions      [0 3 -1 0 0 0 0];

internalField   nonuniform List<scalar> 
268
(
0.000818751
-1.23873e-19
-2.88078e-20
0.00123573
4.21194e-20
-1.10904e-19
0.00145744
-1.29519e-19
-2.99688e-19
0.00159448
-5.60561e-20
-1.59223e-19
0.00168925
1.80757e-19
-3.92772e-19
0.00175966
2.20674e-19
-4.6181e-19
0.00181443
2.40096e-19
-4.79571e-19
0.00185838
2.70275e-19
-4.85785e-19
0.00189443
2.39412e-19
-4.54863e-19
0.00192448
2.02517e-19
-6.05228e-19
0.00194985
3.99585e-19
-5.25633e-19
0.00197147
3.30792e-19
-4.21305e-19
0.00199005
3.35493e-19
-3.97162e-19
0.00200613
-1.62087e-19
1.22437e-19
0.00202014
-2.22228e-19
1.98675e-19
0.00203241
-2.85635e-19
2.71101e-19
0.00204321
2.25383e-20
-3.06039e-20
0.00205275
-3.86026e-20
3.18503e-20
0.00206123
-8.92787e-20
8.28215e-20
0.00206879
-1.19343e-19
1.12169e-19
0.00207554
-1.41784e-19
1.34098e-19
0.0020816
-1.53153e-19
1.44917e-19
0.00208706
-1.61961e-19
1.54162e-19
0.00209197
-1.64416e-19
1.57254e-19
0.00209641
-1.67365e-19
1.60785e-19
0.00210044
-1.66571e-19
1.60917e-19
0.00210408
-1.66684e-19
1.62102e-19
0.00210739
-1.6441e-19
1.61028e-19
0.0021104
-1.63408e-19
1.60995e-19
0.00211313
-1.60586e-19
1.595e-19
0.00211562
-1.58865e-19
1.5862e-19
0.00211788
-1.5578e-19
1.5666e-19
0.00211993
-1.53769e-19
1.5525e-19
0.0021218
-1.50828e-19
1.52966e-19
0.00212349
-1.48689e-19
1.5094e-19
0.00212503
-1.45702e-19
1.48417e-19
0.00212641
-1.43404e-19
1.46131e-19
0.00212767
-1.4045e-19
1.43432e-19
0.0021288
-1.38095e-19
1.40837e-19
0.00212981
-1.35206e-19
1.38072e-19
0.00213071
-1.32811e-19
1.35298e-19
0.00213152
-1.29978e-19
1.32436e-19
0.00213223
-1.2761e-19
1.29576e-19
0.00213285
-1.2492e-19
1.26766e-19
0.00213339
-1.22559e-19
1.23892e-19
0.00213386
-1.19914e-19
1.21115e-19
0.00213425
-1.17575e-19
1.1823e-19
0.00213457
-1.1497e-19
1.15464e-19
0.00213484
-1.1259e-19
1.12578e-19
0.00213504
-1.1e-19
1.09844e-19
0.00213519
-1.07612e-19
1.06985e-19
0.00213529
-1.05043e-19
1.043e-19
0.00213534
-1.02629e-19
1.01481e-19
0.00213534
-1.00063e-19
9.8841e-20
0.0021353
-9.76231e-20
9.60672e-20
0.00213522
-9.50513e-20
9.34743e-20
0.00213511
-9.25715e-20
9.07409e-20
0.00213496
-8.99782e-20
8.81751e-20
0.00213477
-8.74707e-20
8.54664e-20
0.00213456
-8.48634e-20
8.29149e-20
0.00213432
-8.23001e-20
8.02208e-20
0.00213405
-7.96616e-20
7.76862e-20
0.00213375
-7.70703e-20
7.50289e-20
0.00213344
-7.4391e-20
7.24996e-20
0.0021331
-7.17474e-20
6.98373e-20
0.00213274
-6.90519e-20
6.72842e-20
0.00213237
-6.6363e-20
6.45982e-20
0.00213198
-6.36127e-20
6.20016e-20
0.00213157
-6.08683e-20
5.92749e-20
0.00213115
-5.8077e-20
5.66507e-20
0.00213072
-5.52802e-20
5.39393e-20
0.00213027
-5.24342e-20
5.12788e-20
0.00212982
-4.95685e-20
4.85152e-20
0.00212936
-4.66926e-20
4.57959e-20
0.00212889
-4.38314e-20
4.29786e-20
0.00212841
-4.09334e-20
4.01849e-20
0.00212792
-3.80246e-20
3.73401e-20
0.00212743
-3.50948e-20
3.45391e-20
0.00212694
-3.21551e-20
3.1663e-20
0.00212644
-2.91907e-20
2.87882e-20
0.00212593
-2.62111e-20
2.58619e-20
0.00212543
-2.32073e-20
2.29392e-20
0.00212492
-2.01854e-20
1.9984e-20
0.00212441
-1.71792e-20
1.70217e-20
0.0021239
-1.42053e-20
1.404e-20
0.00212339
-1.12292e-20
1.10901e-20
0.00212288
-8.29198e-21
8.20206e-21
0.00212238
-5.39138e-21
5.33819e-21
0.00212187
-2.52166e-21
2.49747e-21
0.00212137
)
;

boundaryField
{
    inlet
    {
        type            cyclic;
        value           nonuniform List<scalar> 
90
(
-0.000818751
-0.00123573
-0.00145744
-0.00159448
-0.00168925
-0.00175966
-0.00181443
-0.00185838
-0.00189443
-0.00192448
-0.00194985
-0.00197147
-0.00199005
-0.00200613
-0.00202014
-0.00203241
-0.00204321
-0.00205275
-0.00206123
-0.00206879
-0.00207554
-0.0020816
-0.00208706
-0.00209197
-0.00209641
-0.00210044
-0.00210408
-0.00210739
-0.0021104
-0.00211313
-0.00211562
-0.00211788
-0.00211993
-0.0021218
-0.00212349
-0.00212503
-0.00212641
-0.00212767
-0.0021288
-0.00212981
-0.00213071
-0.00213152
-0.00213223
-0.00213285
-0.00213339
-0.00213386
-0.00213425
-0.00213457
-0.00213484
-0.00213504
-0.00213519
-0.00213529
-0.00213534
-0.00213534
-0.0021353
-0.00213522
-0.00213511
-0.00213496
-0.00213477
-0.00213456
-0.00213432
-0.00213405
-0.00213375
-0.00213344
-0.0021331
-0.00213274
-0.00213237
-0.00213198
-0.00213157
-0.00213115
-0.00213072
-0.00213027
-0.00212982
-0.00212936
-0.00212889
-0.00212841
-0.00212792
-0.00212743
-0.00212694
-0.00212644
-0.00212593
-0.00212543
-0.00212492
-0.00212441
-0.0021239
-0.00212339
-0.00212288
-0.00212238
-0.00212187
-0.00212137
)
;
    }
    outlet
    {
        type            cyclic;
        value           nonuniform List<scalar> 
90
(
0.000818751
0.00123573
0.00145744
0.00159448
0.00168925
0.00175966
0.00181443
0.00185838
0.00189443
0.00192448
0.00194985
0.00197147
0.00199005
0.00200613
0.00202014
0.00203241
0.00204321
0.00205275
0.00206123
0.00206879
0.00207554
0.0020816
0.00208706
0.00209197
0.00209641
0.00210044
0.00210408
0.00210739
0.0021104
0.00211313
0.00211562
0.00211788
0.00211993
0.0021218
0.00212349
0.00212503
0.00212641
0.00212767
0.0021288
0.00212981
0.00213071
0.00213152
0.00213223
0.00213285
0.00213339
0.00213386
0.00213425
0.00213457
0.00213484
0.00213504
0.00213519
0.00213529
0.00213534
0.00213534
0.0021353
0.00213522
0.00213511
0.00213496
0.00213477
0.00213456
0.00213432
0.00213405
0.00213375
0.00213344
0.0021331
0.00213274
0.00213237
0.00213198
0.00213157
0.00213115
0.00213072
0.00213027
0.00212982
0.00212936
0.00212889
0.00212841
0.00212792
0.00212743
0.00212694
0.00212644
0.00212593
0.00212543
0.00212492
0.00212441
0.0021239
0.00212339
0.00212288
0.00212238
0.00212187
0.00212137
)
;
    }
    bottom
    {
        type            symmetry;
        value           uniform 0;
    }
    top
    {
        type            calculated;
        value           uniform 0;
    }
    frontAndBack
    {
        type            empty;
        value           nonuniform 0();
    }
}


// ************************************************************************* //
