/*--------------------------------*- C++ -*----------------------------------*\
  =========                 |
  \\      /  F ield         | OpenFOAM: The Open Source CFD Toolbox
   \\    /   O peration     | Website:  https://openfoam.org
    \\  /    A nd           | Version:  7
     \\/     M anipulation  |
\*---------------------------------------------------------------------------*/
FoamFile
{
    version     2.0;
    format      ascii;
    class       volVectorField;
    location    "1000";
    object      U;
}
// * * * * * * * * * * * * * * * * * * * * * * * * * * * * * * * * * * * * * //

dimensions      [0 1 -1 0 0 0 0];

internalField   nonuniform List<vector> 
180
(
(0.715098 -7.01766e-20 0)
(0.767227 -9.13044e-20 0)
(1.11395 -2.04011e-19 0)
(1.11501 -6.56798e-20 0)
(1.31752 -1.13991e-19 0)
(1.30867 -4.45805e-19 0)
(1.43942 -1.47632e-19 0)
(1.43252 -4.40977e-19 0)
(1.52262 1.63124e-19 0)
(1.51941 -5.79986e-19 0)
(1.5844 4.06865e-19 0)
(1.58407 -8.6891e-19 0)
(1.63269 4.71003e-19 0)
(1.63415 -9.52075e-19 0)
(1.67172 5.22976e-19 0)
(1.67408 -9.81756e-19 0)
(1.70397 5.11463e-19 0)
(1.70661 -9.54309e-19 0)
(1.73101 4.51023e-19 0)
(1.73358 -1.08648e-18 0)
(1.75393 6.29143e-19 0)
(1.75624 -1.14501e-18 0)
(1.77353 7.53643e-19 0)
(1.7755 -9.66217e-19 0)
(1.79041 6.08204e-19 0)
(1.79203 -7.56166e-19 0)
(1.80503 1.53626e-19 0)
(1.80632 -2.52084e-19 0)
(1.81777 -3.16017e-19 0)
(1.81876 2.55851e-19 0)
(1.82892 -5.20037e-19 0)
(1.82967 4.84079e-19 0)
(1.83872 -2.56807e-19 0)
(1.83927 2.3675e-19 0)
(1.84739 -2.12411e-20 0)
(1.84778 7.69472e-21 0)
(1.85507 -1.37605e-19 0)
(1.85534 1.24885e-19 0)
(1.86191 -2.15363e-19 0)
(1.86208 2.017e-19 0)
(1.86802 -2.6568e-19 0)
(1.86812 2.51041e-19 0)
(1.8735 -2.98094e-19 0)
(1.87355 2.81737e-19 0)
(1.87842 -3.17597e-19 0)
(1.87843 3.01187e-19 0)
(1.88285 -3.2748e-19 0)
(1.88284 3.1263e-19 0)
(1.88685 -3.32653e-19 0)
(1.88682 3.18839e-19 0)
(1.89047 -3.34601e-19 0)
(1.89043 3.22187e-19 0)
(1.89376 -3.3372e-19 0)
(1.8937 3.23386e-19 0)
(1.89674 -3.31205e-19 0)
(1.89668 3.23406e-19 0)
(1.89944 -3.28056e-19 0)
(1.89938 3.22095e-19 0)
(1.9019 -3.24128e-19 0)
(1.90183 3.20714e-19 0)
(1.90414 -3.19552e-19 0)
(1.90407 3.18329e-19 0)
(1.90617 -3.14717e-19 0)
(1.9061 3.15287e-19 0)
(1.90802 -3.09473e-19 0)
(1.90794 3.12071e-19 0)
(1.90971 -3.04644e-19 0)
(1.90962 3.08338e-19 0)
(1.91123 -2.99556e-19 0)
(1.91114 3.0403e-19 0)
(1.91262 -2.94404e-19 0)
(1.91251 2.99329e-19 0)
(1.91387 -2.89118e-19 0)
(1.91376 2.94647e-19 0)
(1.915 -2.83851e-19 0)
(1.91488 2.89641e-19 0)
(1.91602 -2.78545e-19 0)
(1.91589 2.84269e-19 0)
(1.91693 -2.73293e-19 0)
(1.9168 2.78956e-19 0)
(1.91775 -2.68016e-19 0)
(1.91761 2.73401e-19 0)
(1.91847 -2.62785e-19 0)
(1.91833 2.67762e-19 0)
(1.91911 -2.57534e-19 0)
(1.91897 2.61978e-19 0)
(1.91968 -2.52531e-19 0)
(1.91952 2.56359e-19 0)
(1.92016 -2.47484e-19 0)
(1.92 2.50638e-19 0)
(1.92059 -2.42445e-19 0)
(1.92042 2.45011e-19 0)
(1.92094 -2.37494e-19 0)
(1.92077 2.39344e-19 0)
(1.92124 -2.32547e-19 0)
(1.92106 2.33688e-19 0)
(1.92148 -2.27565e-19 0)
(1.92129 2.28035e-19 0)
(1.92166 -2.22582e-19 0)
(1.92147 2.22413e-19 0)
(1.9218 -2.17613e-19 0)
(1.9216 2.16812e-19 0)
(1.92189 -2.12654e-19 0)
(1.92169 2.11274e-19 0)
(1.92194 -2.07675e-19 0)
(1.92173 2.0577e-19 0)
(1.92194 -2.02694e-19 0)
(1.92173 2.00309e-19 0)
(1.92191 -1.97691e-19 0)
(1.92169 1.94893e-19 0)
(1.92184 -1.92678e-19 0)
(1.92162 1.89532e-19 0)
(1.92174 -1.87635e-19 0)
(1.92151 1.84207e-19 0)
(1.92161 -1.82551e-19 0)
(1.92137 1.78908e-19 0)
(1.92144 -1.77451e-19 0)
(1.9212 1.73636e-19 0)
(1.92125 -1.72347e-19 0)
(1.921 1.68377e-19 0)
(1.92104 -1.67178e-19 0)
(1.92078 1.63135e-19 0)
(1.9208 -1.61955e-19 0)
(1.92054 1.57886e-19 0)
(1.92054 -1.56749e-19 0)
(1.92027 1.52717e-19 0)
(1.92026 -1.51477e-19 0)
(1.91998 1.47529e-19 0)
(1.91995 -1.46132e-19 0)
(1.91968 1.42341e-19 0)
(1.91964 -1.40814e-19 0)
(1.91935 1.37127e-19 0)
(1.9193 -1.35429e-19 0)
(1.91901 1.31891e-19 0)
(1.91895 -1.29987e-19 0)
(1.91866 1.2661e-19 0)
(1.91859 -1.2449e-19 0)
(1.91829 1.21292e-19 0)
(1.91821 -1.18957e-19 0)
(1.91791 1.15902e-19 0)
(1.91783 -1.13371e-19 0)
(1.91752 1.10608e-19 0)
(1.91743 -1.07729e-19 0)
(1.91711 1.05232e-19 0)
(1.91702 -1.02021e-19 0)
(1.9167 9.98049e-20 0)
(1.91661 -9.62386e-20 0)
(1.91628 9.43245e-20 0)
(1.91619 -9.05404e-20 0)
(1.91586 8.87907e-20 0)
(1.91576 -8.47759e-20 0)
(1.91542 8.3182e-20 0)
(1.91532 -7.89639e-20 0)
(1.91498 7.75053e-20 0)
(1.91488 -7.31264e-20 0)
(1.91454 7.18979e-20 0)
(1.91444 -6.72581e-20 0)
(1.91409 6.6218e-20 0)
(1.91399 -6.13542e-20 0)
(1.91364 6.04638e-20 0)
(1.91354 -5.54108e-20 0)
(1.91318 5.46598e-20 0)
(1.91309 -4.94277e-20 0)
(1.91272 4.88068e-20 0)
(1.91264 -4.34028e-20 0)
(1.91226 4.29312e-20 0)
(1.91218 -3.73334e-20 0)
(1.9118 3.70135e-20 0)
(1.91172 -3.13865e-20 0)
(1.91134 3.10669e-20 0)
(1.91126 -2.54248e-20 0)
(1.91088 2.50877e-20 0)
(1.91081 -1.94938e-20 0)
(1.91042 1.92719e-20 0)
(1.91036 -1.36691e-20 0)
(1.90996 1.35323e-20 0)
(1.90991 -7.89235e-21 0)
(1.9095 7.81365e-21 0)
(1.90945 -2.24951e-21 0)
(1.90904 2.2283e-21 0)
)
;

boundaryField
{
    inlet
    {
        type            cyclic;
    }
    outlet
    {
        type            cyclic;
    }
    bottom
    {
        type            symmetry;
    }
    top
    {
        type            noSlip;
    }
    frontAndBack
    {
        type            empty;
    }
}


// ************************************************************************* //
