/*--------------------------------*- C++ -*----------------------------------*\
  =========                 |
  \\      /  F ield         | OpenFOAM: The Open Source CFD Toolbox
   \\    /   O peration     | Website:  https://openfoam.org
    \\  /    A nd           | Version:  7
     \\/     M anipulation  |
\*---------------------------------------------------------------------------*/
FoamFile
{
    version     2.0;
    format      ascii;
    class       volScalarField;
    location    "183";
    object      nut;
}
// * * * * * * * * * * * * * * * * * * * * * * * * * * * * * * * * * * * * * //

dimensions      [0 2 -1 0 0 0 0];

internalField   nonuniform List<scalar> 
12842
(
0.00181162
0.00179065
0.0017877
0.0017725
0.00176919
0.00175997
0.00176244
0.0017615
0.00176104
0.00176655
0.00177283
0.00178599
0.00181207
0.000832411
0.000431054
0.000256666
0.000171899
0.000124471
9.65643e-05
7.77731e-05
6.50663e-05
5.62414e-05
4.99109e-05
0.00181047
0.00178529
0.00178485
0.00177342
0.00177394
0.00176062
0.00176194
0.00176141
0.00175924
0.00176635
0.00177272
0.00178735
0.00177026
0.000814347
0.000423761
0.000252419
0.000169685
0.000123009
9.56274e-05
7.72206e-05
6.46959e-05
5.61874e-05
4.97715e-05
0.0018112
0.0017854
0.00178136
0.00176887
0.00177182
0.00176053
0.00176045
0.00176155
0.00175915
0.00176697
0.00177304
0.00178892
0.00169891
0.00078843
0.0004144
0.000248433
0.000167808
0.000121759
9.46195e-05
7.64915e-05
6.41722e-05
5.60354e-05
4.94555e-05
0.00180689
0.00178187
0.00178025
0.00176672
0.00177148
0.00175973
0.00176048
0.00176048
0.00175826
0.00176698
0.00177536
0.00179216
0.00161481
0.000755929
0.000400883
0.000242204
0.000164238
0.000119884
9.33978e-05
7.56941e-05
6.35102e-05
5.58125e-05
4.90414e-05
0.0018082
0.00178036
0.00177834
0.00176352
0.00176981
0.00175974
0.00176042
0.00176174
0.00175962
0.00176741
0.00177762
0.00179685
0.00154348
0.00073055
0.000391774
0.000238406
0.000162291
0.000118338
9.23883e-05
7.48749e-05
6.29381e-05
5.56098e-05
4.86461e-05
0.00180301
0.00177718
0.00177724
0.00176124
0.00176785
0.001758
0.00176036
0.00176123
0.00175992
0.00176754
0.0017786
0.00180018
0.00148419
0.000707278
0.000382219
0.000234416
0.000159614
0.00011703
9.15177e-05
7.42904e-05
6.23488e-05
5.54046e-05
4.82951e-05
0.0018043
0.00177533
0.00177607
0.00175925
0.00176659
0.00175769
0.00176073
0.00176234
0.00176151
0.00176826
0.0017806
0.00180598
0.00145287
0.000699137
0.00038093
0.000234623
0.000159853
0.000116996
9.11676e-05
7.39131e-05
6.21035e-05
5.53888e-05
4.79524e-05
0.00179922
0.00177277
0.00177489
0.00175733
0.00176458
0.00175595
0.00176075
0.00176187
0.00176193
0.00176866
0.00178283
0.00180898
0.00141712
0.000684803
0.000375812
0.000233392
0.00015854
0.00011642
9.0887e-05
7.35322e-05
6.15416e-05
5.51101e-05
4.75258e-05
0.00180014
0.00177103
0.00177416
0.00175608
0.00176356
0.00175517
0.0017616
0.00176225
0.00176305
0.00176934
0.00178399
0.00181501
0.00138912
0.000675452
0.000372906
0.000232727
0.000158898
0.000116958
9.07226e-05
7.35031e-05
6.1499e-05
5.5198e-05
4.73182e-05
0.00179469
0.00176902
0.00177285
0.00175474
0.00176217
0.00175385
0.00176164
0.00176202
0.00176318
0.0017702
0.00178581
0.00181775
0.00137741
0.000673371
0.00037419
0.000234877
0.000159892
0.000117871
9.15098e-05
7.40767e-05
6.16463e-05
5.55362e-05
4.74522e-05
0.00179485
0.00176727
0.00177215
0.0017537
0.00176136
0.00175302
0.00176219
0.00176214
0.00176416
0.00177059
0.00178997
0.00182179
0.00135541
0.000665696
0.000371356
0.000234036
0.000160379
0.000118647
9.14426e-05
7.43116e-05
6.1674e-05
5.58213e-05
4.72536e-05
0.00178983
0.00176598
0.00177084
0.00175283
0.00176033
0.00175199
0.00176195
0.00176201
0.00176434
0.00177272
0.00179626
0.00182333
0.00132761
0.000656471
0.000369595
0.000234715
0.000160725
0.000119111
9.19085e-05
7.47091e-05
6.16196e-05
5.60483e-05
4.73552e-05
0.00178926
0.00176427
0.00177008
0.00175184
0.00175956
0.00175111
0.00176228
0.00176172
0.00176528
0.00177323
0.00179717
0.00182634
0.00129911
0.000645124
0.000365284
0.00023352
0.000161455
0.00012032
9.21924e-05
7.53415e-05
6.20759e-05
5.65597e-05
4.75002e-05
0.00178514
0.00176372
0.00176879
0.00175154
0.00175877
0.0017504
0.00176196
0.00176153
0.00176557
0.00177597
0.00179576
0.00182578
0.00126805
0.000635058
0.000363276
0.000234498
0.00016268
0.000121627
9.351e-05
7.62332e-05
6.28642e-05
5.66704e-05
4.80809e-05
0.00178451
0.00176211
0.0017679
0.00175079
0.00175787
0.00174961
0.00176194
0.00176094
0.00176636
0.00177686
0.00179549
0.00182988
0.00123807
0.00062228
0.000358862
0.000233761
0.000164356
0.000123701
9.48187e-05
7.7469e-05
6.41543e-05
5.73287e-05
4.91218e-05
0.0017812
0.00176208
0.00176663
0.00175102
0.00175723
0.00174931
0.00176157
0.00176064
0.00176666
0.00177764
0.00179675
0.00183395
0.0012085
0.000612629
0.000357371
0.000235928
0.000167235
0.000126564
9.75668e-05
7.93708e-05
6.59965e-05
5.79004e-05
5.0708e-05
0.00178064
0.00176056
0.00176574
0.00175054
0.00175617
0.00174867
0.00176113
0.0017599
0.00176718
0.00177812
0.00179898
0.00183743
0.00117998
0.000600411
0.000353467
0.000236293
0.000170836
0.000130254
0.000100589
8.17709e-05
6.80718e-05
5.98301e-05
5.35869e-05
0.00177798
0.0017607
0.00176457
0.00175105
0.00175575
0.00174882
0.00176076
0.00175953
0.00176729
0.00178125
0.00180167
0.00183673
0.00115232
0.000591299
0.000353088
0.000240396
0.000176243
0.000135899
0.000105789
8.57557e-05
7.16895e-05
6.24632e-05
5.64456e-05
0.00177756
0.00175925
0.00176378
0.00175075
0.00175464
0.00174838
0.00176001
0.00175885
0.00176735
0.00178255
0.0018073
0.00185229
0.00112615
0.000580169
0.000349836
0.000242332
0.000183191
0.000143085
0.000112305
9.05908e-05
7.52141e-05
6.65727e-05
6.20019e-05
0.00177548
0.0017593
0.00176276
0.00175127
0.00175455
0.00174895
0.00175973
0.00175851
0.00176712
0.00178294
0.00180918
0.00185637
0.00109952
0.00057124
0.000350828
0.000249309
0.000192692
0.000154102
0.000121978
9.81865e-05
8.31543e-05
7.42303e-05
6.70377e-05
0.00177514
0.00175795
0.00176205
0.00175107
0.00175362
0.00174876
0.00175893
0.00175795
0.00176651
0.00178687
0.0018139
0.00187355
0.00107651
0.000562142
0.000348169
0.000253175
0.000205467
0.00016953
0.00013746
0.00011106
9.2317e-05
8.02423e-05
7.32031e-05
0.00177359
0.00175785
0.00176118
0.00175146
0.0017539
0.00174961
0.00175881
0.00175774
0.001766
0.0017875
0.00182148
0.00188274
0.00104941
0.000552253
0.000350488
0.000264117
0.000222545
0.000193907
0.000160238
0.000127126
0.000105957
9.45548e-05
8.57656e-05
0.00177319
0.00175667
0.00176039
0.00175125
0.00175335
0.00174965
0.0017582
0.00175731
0.00176502
0.00178846
0.00182347
0.00189625
0.00101921
0.000540871
0.000347253
0.000268639
0.00024425
0.000230911
0.000202281
0.000161506
0.000132506
0.000111601
9.51511e-05
0.00177235
0.00175637
0.00175975
0.00175155
0.00175393
0.00175074
0.00175812
0.00175698
0.00176361
0.0017888
0.00183786
0.00189808
0.000979498
0.000521977
0.000341256
0.000276254
0.000267528
0.00029597
0.000297008
0.000223866
0.000166122
0.000133396
0.000120025
0.00177189
0.00175582
0.00175874
0.00175159
0.00175445
0.00175163
0.00175822
0.00175664
0.00176274
0.00178831
0.00183576
0.00190985
0.000957896
0.000515362
0.000341402
0.00028076
0.000295072
0.000402635
0.000577918
0.0003515
0.000222296
0.00019237
0.000218322
0.00177157
0.00175558
0.00175794
0.00175168
0.00175519
0.00175263
0.00175854
0.00175654
0.00176191
0.00178638
0.00183609
0.00190882
0.000931899
0.000501108
0.000334973
0.000286097
0.00031561
0.000502594
0.000754463
0.000480052
0.000313799
0.000459968
0.000993243
0.00177097
0.00175523
0.0017565
0.00175158
0.0017559
0.00175371
0.00175906
0.00175633
0.001761
0.00178966
0.0018229
0.00190772
0.000910726
0.000492566
0.000332194
0.000284389
0.000317282
0.000499726
0.000752026
0.000523445
0.000864672
0.0022835
0.00298405
0.00177099
0.00175503
0.0017554
0.00175151
0.00175665
0.00175484
0.00175956
0.00175634
0.00176135
0.00178671
0.00182898
0.00190041
0.000889184
0.000479809
0.000324837
0.000281611
0.000309366
0.00046279
0.000596163
0.00116312
0.00254442
0.00351215
0.00516976
0.00177027
0.00175483
0.00175368
0.0017512
0.00175732
0.00175605
0.00176029
0.00175636
0.0017615
0.00179067
0.0018175
0.00189752
0.000866358
0.00046832
0.000317276
0.000273153
0.000325799
0.000538355
0.000942999
0.00247529
0.00416674
0.0061004
0.00806109
0.00177058
0.00175462
0.00175247
0.00175095
0.0017579
0.00175722
0.00176074
0.00175653
0.00176142
0.0017902
0.00181321
0.00189246
0.000847833
0.00045663
0.000308348
0.000273018
0.00032608
0.000482558
0.00140652
0.00383039
0.00581921
0.00759657
0.0106015
0.0017698
0.00175448
0.00175066
0.00175043
0.00175842
0.00175842
0.00176142
0.0017568
0.00176147
0.0017914
0.00181165
0.00188236
0.000825063
0.000442018
0.00030093
0.00027205
0.000333555
0.00054312
0.00218748
0.00542533
0.00714989
0.00901559
0.0142213
0.00177029
0.00175426
0.00174946
0.00175001
0.00175871
0.00175952
0.00176164
0.00175721
0.00176169
0.00179185
0.00181287
0.00186954
0.000808641
0.000433254
0.00029339
0.000263032
0.000319718
0.000746224
0.00389682
0.00692631
0.00894635
0.0125363
0.0188515
0.00176954
0.0017541
0.00174775
0.00174938
0.00175895
0.00176053
0.00176206
0.00175765
0.00176086
0.00179041
0.00181635
0.00185509
0.000788499
0.000419731
0.000286004
0.000250555
0.000318868
0.00108037
0.00449076
0.00806593
0.0113397
0.0157003
0.021685
0.00177007
0.00175389
0.00174675
0.00174886
0.00175886
0.00176143
0.00176203
0.00175822
0.00176176
0.00179195
0.00182218
0.00181468
0.000776245
0.000412383
0.000272174
0.000237626
0.000402873
0.00210906
0.00430926
0.0100823
0.0129838
0.0186759
0.0236953
0.0017694
0.00175369
0.00174538
0.00174819
0.0017588
0.00176211
0.00176211
0.00175864
0.00176153
0.00179161
0.00183129
0.00176924
0.000759432
0.000399478
0.000263882
0.000220661
0.000399427
0.00263968
0.00485899
0.0106442
0.0144287
0.0213982
0.0242797
0.00176982
0.00175355
0.00174477
0.00174758
0.00175833
0.00176266
0.00176191
0.00175929
0.00176163
0.00179098
0.00183636
0.00173522
0.000751001
0.000392696
0.000250533
0.000271146
0.000967215
0.0031514
0.00741046
0.0104994
0.0166438
0.0231585
0.0241912
0.00176924
0.00175334
0.00174387
0.00174694
0.00175799
0.00176287
0.00176176
0.00175967
0.00176191
0.00179146
0.00184475
0.00170615
0.000737114
0.000379631
0.00024455
0.000292123
0.00131057
0.00454151
0.00923571
0.0107516
0.0188506
0.0250115
0.0247852
0.00176942
0.00175333
0.00174379
0.0017463
0.00175717
0.00176292
0.00176153
0.00176027
0.00176274
0.00179453
0.00185529
0.00169088
0.000732884
0.000375785
0.000249483
0.000387861
0.00183437
0.00410229
0.00705653
0.012729
0.0209423
0.0264474
0.0261386
0.00176895
0.00175319
0.00174344
0.00174574
0.00175655
0.00176256
0.00176133
0.00176059
0.00176341
0.0017965
0.00185998
0.00167145
0.000721907
0.000365319
0.000240783
0.000366406
0.00254113
0.00641557
0.00907943
0.0150675
0.0233832
0.0270378
0.0257059
0.00176882
0.00175333
0.00174387
0.00174516
0.00175547
0.00176205
0.00176114
0.00176088
0.00176504
0.00180065
0.00186788
0.0016663
0.000722822
0.000366
0.000238658
0.000413166
0.00406956
0.00543793
0.0115862
0.0163535
0.0255199
0.0243355
0.0229117
0.00176841
0.00175332
0.00174405
0.00174467
0.00175452
0.00176115
0.00176098
0.00176072
0.00176617
0.00180299
0.00187214
0.00165539
0.000716216
0.000361223
0.000257165
0.000484955
0.00303371
0.00316449
0.00988181
0.0198764
0.0275209
0.0206827
0.0197523
0.001768
0.00175357
0.00174491
0.00174423
0.00175331
0.00176015
0.00176087
0.0017608
0.0017689
0.00180779
0.00188037
0.00165979
0.000723986
0.000368077
0.000250975
0.000460898
0.0044936
0.005799
0.0138284
0.0180017
0.0283885
0.0189251
0.0184961
0.00176761
0.00175371
0.00174553
0.0017438
0.00175205
0.00175886
0.00176081
0.00176147
0.00177089
0.00181047
0.00188604
0.0016576
0.000723619
0.00036921
0.000250976
0.00040388
0.00378356
0.0045299
0.0133569
0.0201879
0.0286609
0.0185919
0.0173866
0.00176701
0.00175403
0.00174668
0.00174352
0.00175083
0.00175757
0.00176083
0.00176238
0.0017746
0.00181586
0.00189436
0.00167404
0.000740432
0.000384425
0.000253034
0.000556461
0.00444498
0.00651846
0.0142385
0.0206628
0.0282881
0.0186683
0.0163934
0.00176657
0.00175428
0.00174759
0.00174316
0.00174942
0.00175615
0.00176082
0.00176328
0.00177712
0.00181887
0.00190137
0.00168045
0.000747833
0.000395581
0.000278755
0.000592102
0.00409785
0.00748214
0.012284
0.0205366
0.0271249
0.0178213
0.0149189
0.00176594
0.00175461
0.00174883
0.00174305
0.00174824
0.00175482
0.00176093
0.00176433
0.00178103
0.00182498
0.00190944
0.00171112
0.000777058
0.000423776
0.000286784
0.000624472
0.00332275
0.00593338
0.0124874
0.0214248
0.0268946
0.0161657
0.0220927
0.00176541
0.00175489
0.00174992
0.00174276
0.00174704
0.00175353
0.00176095
0.0017653
0.00178351
0.00182837
0.00191713
0.00172958
0.000795639
0.000452091
0.000418004
0.000849326
0.00437288
0.00671151
0.0137506
0.0210802
0.0238207
0.0174235
0.0262147
0.00176485
0.00175521
0.00175104
0.00174282
0.00174596
0.00175237
0.00176106
0.00176641
0.00178744
0.00183491
0.00192437
0.00178044
0.000845974
0.00050812
0.000550973
0.00170625
0.00607078
0.00850477
0.0156303
0.0210541
0.0199232
0.01766
0.0285699
0.00176428
0.00175545
0.00175221
0.00174261
0.00174517
0.00175137
0.00176135
0.00176761
0.0017895
0.00183851
0.00193192
0.00181964
0.000893812
0.000601232
0.00106412
0.00346484
0.00747873
0.0108936
0.016742
0.0199543
0.0197336
0.0201711
0.0300827
0.00176379
0.00175579
0.0017532
0.00174284
0.00174436
0.00175045
0.00176102
0.00176856
0.00179291
0.00184368
0.00193727
0.00187674
0.000971322
0.000832717
0.00182369
0.00630493
0.0087774
0.0139082
0.018
0.0191901
0.0207071
0.0230797
0.0313855
0.00176333
0.00175597
0.00175431
0.00174287
0.00174402
0.00174982
0.00176118
0.00177028
0.00179448
0.00184672
0.00194166
0.00189308
0.00103405
0.00112878
0.00321045
0.00813141
0.0102383
0.0170955
0.0193836
0.0193509
0.0220225
0.0258517
0.0327119
0.00176293
0.00175625
0.00175519
0.00174322
0.00174387
0.0017493
0.00176137
0.00177126
0.00179685
0.00184995
0.00194437
0.00192468
0.00115978
0.00173123
0.00539764
0.00902906
0.0117902
0.0203068
0.0210879
0.0207766
0.0241942
0.0290389
0.0345233
0.00176267
0.00175634
0.00175578
0.00174356
0.00174407
0.00174899
0.00176156
0.00177237
0.00179805
0.00185248
0.0019458
0.0019238
0.00123335
0.00219032
0.00724073
0.00978532
0.0136883
0.0234478
0.0228921
0.0228833
0.0271119
0.0324576
0.0359685
0.00176236
0.00175651
0.00175641
0.00174409
0.00174405
0.00174878
0.00176197
0.00177324
0.00179994
0.00185529
0.00194707
0.00193164
0.00140353
0.00298875
0.00781011
0.0105649
0.0156576
0.0249743
0.0242311
0.0250924
0.0297783
0.0344968
0.0352655
0.00176224
0.00175654
0.00175686
0.00174454
0.0017444
0.00174871
0.0017622
0.00177423
0.00180105
0.00185733
0.00194726
0.00189824
0.00143487
0.00346121
0.008195
0.0112944
0.0179021
0.0254524
0.0249943
0.0265153
0.0302233
0.033145
0.0319087
0.00176205
0.00175662
0.00175704
0.00174506
0.00174458
0.00174872
0.00176251
0.00177506
0.00180289
0.00186007
0.00194738
0.00190184
0.00155119
0.00413673
0.00870669
0.0121749
0.0197364
0.0257212
0.0235637
0.0243066
0.0270537
0.0299897
0.0291335
0.00176202
0.00175663
0.00175711
0.0017455
0.00174498
0.00174885
0.00176249
0.00177558
0.00180395
0.00186165
0.00194725
0.0018852
0.00156672
0.00437
0.00914171
0.0128498
0.0212185
0.0253982
0.0212422
0.0209051
0.023097
0.0264497
0.0270554
0.0017619
0.00175666
0.00175693
0.00174602
0.00174535
0.00174893
0.00176266
0.00177597
0.00180517
0.00186296
0.0019473
0.00188833
0.00160232
0.0045714
0.0095464
0.0135772
0.0226238
0.0266837
0.0221987
0.021288
0.0226961
0.0252635
0.025983
0.00176189
0.00175664
0.00175677
0.00174649
0.00174575
0.0017491
0.0017626
0.0017759
0.00180597
0.00186423
0.00194853
0.00192873
0.00164863
0.00483371
0.00988717
0.014246
0.0239639
0.0276274
0.0229988
0.0221973
0.0236529
0.0262612
0.0271153
0.00176178
0.00175659
0.0017564
0.00174702
0.00174633
0.00174939
0.00176238
0.00177611
0.00180694
0.00186559
0.00194991
0.00197748
0.00171078
0.00506289
0.0101253
0.0150645
0.0252337
0.0286429
0.0238725
0.0233032
0.0247727
0.0273069
0.0280149
0.00176177
0.00175654
0.00175608
0.00174746
0.0017464
0.0017495
0.00176204
0.00177621
0.00180742
0.00186697
0.00195267
0.0020261
0.0017619
0.00525698
0.0102059
0.0156205
0.0264154
0.0299737
0.0250183
0.0246041
0.0259141
0.0282388
0.0286873
0.00176167
0.00175641
0.00175559
0.00174788
0.00174666
0.00174986
0.00176158
0.0017761
0.00180818
0.00186888
0.00195526
0.00201676
0.00183383
0.00542517
0.0102507
0.0160115
0.0274962
0.0313309
0.0262845
0.0260163
0.0270951
0.029111
0.0292544
0.00176164
0.0017563
0.00175517
0.00174823
0.00174694
0.00175034
0.00176107
0.00177604
0.00180847
0.0018709
0.00195792
0.00201432
0.00190719
0.00571154
0.010276
0.0162859
0.0284986
0.0328216
0.0277634
0.0275743
0.0284092
0.0299888
0.0297558
0.00176155
0.00175609
0.00175462
0.00174847
0.0017472
0.00175069
0.00176053
0.00177623
0.00180921
0.00187347
0.00196066
0.00199882
0.00208372
0.00610631
0.010209
0.0162209
0.0293924
0.0344887
0.0294755
0.0292683
0.0298578
0.0309006
0.0302804
0.00176152
0.00175591
0.00175418
0.00174899
0.00174762
0.00175094
0.00175999
0.00177623
0.00180955
0.00187598
0.00196143
0.00197871
0.00229952
0.00611327
0.010107
0.016264
0.0302711
0.0363666
0.031419
0.0310956
0.0314378
0.0318836
0.0308635
0.00176143
0.00175562
0.00175362
0.00174892
0.00174779
0.0017511
0.00175949
0.00177626
0.00181055
0.00187863
0.00196319
0.00195602
0.00257246
0.00581412
0.00995418
0.0162115
0.0311276
0.0384956
0.0335887
0.0330563
0.0331366
0.0330537
0.0314464
0.00176142
0.00175539
0.00175322
0.00174931
0.00174778
0.00175123
0.00175905
0.00177636
0.00181117
0.00188092
0.00196267
0.00194198
0.00259764
0.00551304
0.0097291
0.016116
0.0319922
0.0409106
0.0359561
0.0351217
0.0349956
0.0344252
0.032157
0.00176133
0.00175503
0.00175273
0.00174943
0.00174778
0.00175132
0.00175869
0.00177615
0.00181266
0.00188303
0.00196403
0.00195435
0.00259847
0.00517691
0.00945075
0.0161929
0.0327148
0.0435974
0.0384719
0.0372919
0.036897
0.0360659
0.0331116
0.00176135
0.0017548
0.00175241
0.00174984
0.00174771
0.00175138
0.00175842
0.00177621
0.00181354
0.00188452
0.00196482
0.00200232
0.00271206
0.00516872
0.0092792
0.0162311
0.0332056
0.0464525
0.0410285
0.039582
0.0388402
0.0378354
0.0343601
0.00176126
0.0017544
0.00175203
0.00174995
0.00174768
0.00175147
0.00175822
0.0017763
0.0018154
0.00188613
0.00196848
0.00205577
0.00301701
0.00546365
0.00940878
0.0163287
0.0337988
0.0493584
0.043652
0.041928
0.0408735
0.0397229
0.0358416
0.0017613
0.00175422
0.00175179
0.00175031
0.0017476
0.00175152
0.00175812
0.00177638
0.00181641
0.00188698
0.00197349
0.00216504
0.00343482
0.00605797
0.00984659
0.0165648
0.0341851
0.051004
0.0463899
0.0443266
0.0429922
0.0417837
0.0375476
0.00176121
0.00175379
0.00175157
0.00175081
0.0017476
0.00175164
0.00175799
0.00177685
0.00181843
0.00188876
0.00198207
0.00226288
0.00392724
0.00682268
0.0105448
0.0169947
0.0346169
0.0517035
0.0493125
0.0467909
0.0453114
0.0440665
0.0394822
0.00176122
0.00175367
0.00175134
0.00175118
0.00174747
0.00175178
0.00175792
0.001777
0.00181944
0.00188974
0.00199319
0.00242478
0.0045156
0.00772757
0.0114862
0.017651
0.0351151
0.0523263
0.0525266
0.0493984
0.0478448
0.04654
0.0415928
0.00176114
0.00175325
0.00175126
0.00175119
0.00174746
0.00175192
0.00175781
0.00177774
0.00182141
0.00189246
0.00200769
0.00254557
0.00509525
0.00868829
0.0125793
0.0184916
0.0356009
0.0528058
0.0557928
0.0522482
0.0506447
0.0492075
0.043878
0.00176109
0.00175319
0.00175102
0.00175127
0.00174731
0.0017521
0.00175776
0.00177822
0.00182234
0.00189433
0.00202315
0.00272406
0.00569253
0.00971172
0.0137899
0.0195863
0.0365155
0.0533987
0.0591375
0.0553863
0.0536764
0.0520934
0.0463506
0.00176101
0.00175283
0.001751
0.0017512
0.00174728
0.00175222
0.00175763
0.00177963
0.00182428
0.00189837
0.00204275
0.002869
0.00633473
0.0107576
0.0150721
0.0207489
0.0373375
0.0540496
0.0625488
0.0588146
0.0569665
0.0552406
0.0490842
0.00176091
0.00175276
0.00175075
0.00175112
0.00174722
0.00175221
0.00175764
0.00178026
0.00182517
0.00190134
0.00206034
0.00302643
0.0068319
0.011784
0.0163929
0.0221605
0.0382218
0.0547885
0.06436
0.0625314
0.0605599
0.0586662
0.0521276
0.0017608
0.00175253
0.00175076
0.00175097
0.00174706
0.0017523
0.00175749
0.00178151
0.00182725
0.00190657
0.00208161
0.00316691
0.00737042
0.0126956
0.017727
0.0237448
0.0398482
0.0556672
0.0650269
0.0662967
0.0643569
0.0623408
0.0555745
0.00176066
0.00175239
0.00175048
0.00175063
0.00174694
0.00175218
0.00175758
0.00178228
0.00182825
0.00191037
0.0021005
0.00332366
0.00786445
0.0135443
0.0190832
0.0259142
0.0413823
0.0566991
0.065713
0.0690383
0.0682491
0.0661135
0.0594828
0.00176052
0.00175234
0.00175052
0.00175035
0.00174706
0.00175216
0.00175759
0.00178447
0.00183067
0.00191636
0.00212178
0.00349752
0.00824459
0.0142496
0.0203634
0.0280997
0.0436589
0.0578936
0.066449
0.0693846
0.0694822
0.0679185
0.0634779
0.00176035
0.00175206
0.00175023
0.00174975
0.00174674
0.00175213
0.00175777
0.00178599
0.00183202
0.0019206
0.00214102
0.00366837
0.00864496
0.0148643
0.0216483
0.0303554
0.0456442
0.0592338
0.0671663
0.069715
0.0697089
0.0678535
0.06544
0.00176018
0.00175215
0.00175029
0.00174941
0.00174695
0.00175222
0.00175804
0.00178824
0.00183502
0.00192688
0.00216112
0.0038546
0.00906409
0.0155281
0.0228911
0.0326163
0.0483551
0.0606855
0.0678868
0.0701418
0.069912
0.0677324
0.0650955
0.00176002
0.00175181
0.00175003
0.0017487
0.00174736
0.00175216
0.00175834
0.00178997
0.00183692
0.00193115
0.00217997
0.00398585
0.00935835
0.0161856
0.0240035
0.0356706
0.0505477
0.0622272
0.0686515
0.0705794
0.0700707
0.0675629
0.0646729
0.00175982
0.00175191
0.00175013
0.00174827
0.00174764
0.0017517
0.00175858
0.00179244
0.00184061
0.00193737
0.00219738
0.00413067
0.00968249
0.0167981
0.0255227
0.0379919
0.0534559
0.0636735
0.069406
0.0710812
0.0702029
0.067335
0.0641559
0.00175967
0.00175159
0.00174978
0.00174851
0.00174811
0.00175207
0.0017589
0.0017942
0.00184307
0.00194144
0.00221687
0.00426578
0.00995545
0.017381
0.0268555
0.0413193
0.0555288
0.0651207
0.0701786
0.0715429
0.0702387
0.0670055
0.0635014
0.00175945
0.0017516
0.00174989
0.00174966
0.0017492
0.00175273
0.00175947
0.00179645
0.00184732
0.00194782
0.00223657
0.00441163
0.010162
0.0178381
0.0279797
0.0440629
0.058149
0.0667627
0.0709914
0.0719325
0.0700789
0.0664719
0.0626316
0.00175934
0.00175139
0.00174955
0.00174984
0.00174999
0.00175291
0.0017597
0.00179862
0.0018501
0.00195166
0.00225264
0.00454306
0.0104052
0.0183339
0.0290671
0.0477917
0.0610717
0.0680311
0.0717888
0.072229
0.0697393
0.0656979
0.0615187
0.00175909
0.00175125
0.00174963
0.00174972
0.00174941
0.00175306
0.00175936
0.00180123
0.00185461
0.00195863
0.00228093
0.00474864
0.0107161
0.0187584
0.030127
0.0506601
0.0626668
0.0694744
0.0726626
0.0724078
0.0692764
0.0647749
0.0602472
0.00175902
0.00175114
0.00174949
0.0017492
0.001748
0.00175236
0.00175985
0.00180299
0.00185741
0.00196274
0.0022944
0.00486747
0.0109054
0.0191956
0.0310716
0.0534754
0.0645411
0.0710763
0.0735879
0.0724964
0.0687376
0.0637541
0.0588974
0.00175877
0.00175086
0.00174935
0.00174856
0.00174692
0.00175228
0.00175944
0.00180544
0.00186192
0.00197049
0.00232289
0.00511684
0.0112373
0.0196137
0.0323399
0.0574907
0.0669777
0.0729265
0.0744877
0.0725077
0.0681145
0.0626806
0.0575412
0.00175871
0.00175075
0.001749
0.00174786
0.00174636
0.00175284
0.00175977
0.00180695
0.0018645
0.00197481
0.00233571
0.00526431
0.0113318
0.0199563
0.0338133
0.0581192
0.0690733
0.0743263
0.0752588
0.0724436
0.0674175
0.0615309
0.0560055
0.00175849
0.00175038
0.00174841
0.00174696
0.00174555
0.00175254
0.00176013
0.00180884
0.00186886
0.00198335
0.0023758
0.00554829
0.0118895
0.0202955
0.0351105
0.0586785
0.071366
0.075654
0.0758524
0.0722292
0.0665775
0.0601959
0.0543238
0.0017584
0.00175025
0.00174818
0.00174759
0.00174508
0.00175326
0.00176064
0.00181021
0.00187112
0.00198771
0.00239843
0.00569134
0.0122437
0.0205087
0.0366515
0.0601238
0.0722475
0.0767674
0.0762908
0.0719639
0.0657591
0.0589629
0.0527201
0.00175818
0.00174993
0.00174777
0.00174905
0.00174565
0.00175474
0.0017613
0.00181204
0.00187547
0.00199694
0.00244837
0.00600726
0.0130892
0.0210499
0.0380056
0.0619539
0.0745527
0.0777626
0.0764525
0.0714411
0.064602
0.0573227
0.0508004
0.00175806
0.00174982
0.00174781
0.00174969
0.00174732
0.00175601
0.00176219
0.00181333
0.00187758
0.00200176
0.00248097
0.00616372
0.0133713
0.0217324
0.0402016
0.0642963
0.075924
0.0785405
0.0765438
0.0709525
0.0636457
0.0558471
0.0489965
0.00175779
0.00174962
0.00174802
0.00175031
0.00174824
0.00175651
0.00176239
0.00181513
0.00188245
0.00201397
0.00258086
0.006542
0.0141216
0.0231196
0.0403853
0.0647144
0.0771797
0.0789153
0.0757748
0.0692496
0.0612801
0.0531459
0.0458834
0.00175767
0.00174953
0.00174841
0.00175002
0.00174864
0.0017575
0.0017615
0.00181403
0.00188372
0.00201445
0.00255322
0.00635834
0.0135841
0.0220146
0.0410305
0.0664179
0.07754
0.0790587
0.0755074
0.0684496
0.0601498
0.0516566
0.0438764
0.00175739
0.00174942
0.00174893
0.00175015
0.0017492
0.00175831
0.00176143
0.00181519
0.00188566
0.00200826
0.00249791
0.0059574
0.0127943
0.0220167
0.0399676
0.0692895
0.0779069
0.0789955
0.0750185
0.0673207
0.0585073
0.0497303
0.041829
0.00175724
0.0017493
0.00174937
0.00174985
0.00174894
0.0017575
0.00176189
0.00181607
0.00188805
0.00200372
0.0024112
0.00539351
0.01168
0.0227879
0.0375058
0.0703209
0.0780372
0.0785738
0.0740618
0.0659169
0.0568812
0.0476386
0.0394053
0.00175693
0.00174919
0.0017496
0.00174962
0.00174921
0.00175585
0.00176266
0.00181767
0.00189279
0.00199237
0.00229909
0.00463536
0.00997656
0.0222435
0.0380406
0.070431
0.0776388
0.0775332
0.0729573
0.0642167
0.0547961
0.045456
0.0371341
0.00175666
0.00174897
0.00175001
0.00174956
0.00174873
0.00175405
0.00176302
0.00181984
0.001899
0.0019955
0.00219625
0.00407463
0.0090456
0.0228283
0.040718
0.0698318
0.0767096
0.0761332
0.0712991
0.0627555
0.0531075
0.0432711
0.0348153
0.00175638
0.00174884
0.00174974
0.00174899
0.00174893
0.00175438
0.00176389
0.00182368
0.00190995
0.00200976
0.00217246
0.00364417
0.00745174
0.020978
0.0419955
0.0686218
0.0749091
0.0740158
0.0690232
0.0605732
0.0509579
0.041925
0.0338982
0.00175592
0.00174846
0.00175007
0.0017491
0.00174806
0.00175305
0.0017627
0.00182866
0.00192278
0.00205346
0.00229595
0.0036591
0.00765187
0.0204928
0.0432081
0.0670933
0.0726418
0.0716481
0.0664393
0.0577522
0.0486723
0.0393016
0.0314153
0.00175559
0.00174825
0.00174951
0.00174829
0.00174843
0.00175265
0.00176273
0.00183626
0.00194296
0.00212077
0.00251783
0.0039712
0.00818766
0.0221402
0.0448858
0.0655783
0.0701619
0.0683741
0.063433
0.0549527
0.0451702
0.035911
0.0275774
0.00175496
0.00174769
0.00174951
0.00174828
0.00174726
0.0017523
0.00176337
0.00184435
0.00196291
0.00222422
0.00291398
0.00466398
0.00871676
0.0234332
0.0470351
0.0642843
0.0675621
0.0654615
0.0592258
0.0506675
0.041118
0.0315873
0.0236867
0.00175438
0.00174733
0.00174885
0.00174733
0.00174746
0.00175069
0.00176186
0.00185665
0.00199239
0.00235368
0.00337338
0.00533956
0.00976931
0.0247271
0.0496393
0.0633813
0.06527
0.061378
0.0550915
0.0466041
0.0371625
0.0271233
0.0176518
0.00175359
0.00174656
0.00174836
0.00174704
0.00174652
0.00175024
0.00176471
0.00186951
0.0020191
0.00251394
0.00402516
0.00634965
0.0111089
0.0321317
0.0525963
0.0626311
0.0625228
0.0582536
0.0497045
0.0405114
0.0284815
0.0182354
0.0113889
0.00175246
0.0017459
0.00174757
0.00174583
0.00174621
0.00174862
0.00176875
0.00188392
0.00205615
0.00272651
0.00469193
0.00712257
0.012849
0.0337337
0.0550456
0.0619355
0.0593279
0.0522144
0.0422787
0.0286927
0.0172007
0.0101303
0.0066385
0.00175151
0.00174493
0.00174654
0.00174526
0.00174477
0.00174956
0.00177275
0.00190719
0.00209468
0.00296304
0.0053976
0.00824699
0.0166134
0.0350206
0.0565046
0.0605355
0.0566872
0.0460572
0.0287901
0.0153872
0.00907923
0.00627392
0.00433948
0.00174955
0.00174373
0.0017454
0.00174425
0.00174451
0.00175053
0.00177944
0.00192583
0.00214263
0.00331676
0.00629082
0.00958504
0.0206695
0.0389752
0.0569835
0.0574009
0.0481959
0.0318191
0.0164997
0.00922954
0.00726715
0.00518523
0.00380139
0.00174839
0.00174276
0.00174435
0.00174289
0.0017415
0.00175014
0.00179028
0.00194495
0.00220931
0.00363121
0.00683238
0.0108028
0.0261588
0.0417583
0.0562771
0.0514209
0.0367593
0.0198288
0.0111805
0.00870765
0.00785903
0.00657084
0.00536716
0.00174555
0.00174066
0.00174195
0.0017434
0.00174302
0.00175136
0.00180019
0.00197534
0.00228261
0.00413915
0.00801954
0.0136491
0.0324002
0.0467752
0.0527755
0.0425476
0.0267063
0.015798
0.0120878
0.0101776
0.00921078
0.00726577
0.00606985
0.00174415
0.00173974
0.00174097
0.00174053
0.00173943
0.00175335
0.00179698
0.00200416
0.00238039
0.00455667
0.00880179
0.0156528
0.0358801
0.0495128
0.0482258
0.0374787
0.0217913
0.0156735
0.0130921
0.0106855
0.00915303
0.00735582
0.00598033
0.00174037
0.00173735
0.00173858
0.00174213
0.00174451
0.00175447
0.00180414
0.00203783
0.00251398
0.00524958
0.0105259
0.0202604
0.0396581
0.0498072
0.0447042
0.0339125
0.0203498
0.0158465
0.0139248
0.0111476
0.00975023
0.00774406
0.00604331
0.00173887
0.00173655
0.0017367
0.00173682
0.0017425
0.00176098
0.0018204
0.00207164
0.0026795
0.00606409
0.0122074
0.0244154
0.043746
0.0492936
0.0443285
0.0302599
0.0188819
0.01563
0.0143332
0.0117152
0.00942018
0.0069947
0.00390521
0.0017343
0.00173466
0.00173812
0.00173959
0.00174917
0.0017679
0.00182742
0.0021224
0.00294435
0.0070283
0.0138777
0.0301951
0.0483962
0.0500434
0.0459527
0.0272402
0.0185536
0.0161815
0.0148095
0.0120602
0.00739999
0.00444567
0.00324554
0.00173394
0.00173413
0.00173477
0.00173378
0.00174603
0.00178617
0.00183909
0.00218283
0.00333355
0.00834711
0.0167897
0.0360976
0.0517031
0.0511754
0.041718
0.0256622
0.0197936
0.0167775
0.014899
0.0074399
0.00510279
0.00326212
0.0025494
0.00172837
0.00173139
0.0017392
0.0017367
0.00175547
0.00179763
0.00185995
0.00223492
0.00387896
0.0101808
0.0205231
0.0423001
0.0543964
0.0515906
0.038226
0.0261381
0.0221314
0.0175667
0.0091788
0.00532896
0.00333917
0.00241651
0.00216575
0.00173072
0.00173333
0.00173753
0.00173621
0.00174447
0.00183604
0.00191022
0.00243855
0.00503405
0.0121253