/*--------------------------------*- C++ -*----------------------------------*\
  =========                 |
  \\      /  F ield         | OpenFOAM: The Open Source CFD Toolbox
   \\    /   O peration     | Website:  https://openfoam.org
    \\  /    A nd           | Version:  7
     \\/     M anipulation  |
\*---------------------------------------------------------------------------*/
FoamFile
{
    version     2.0;
    format      ascii;
    class       volScalarField;
    location    "183";
    object      p;
}
// * * * * * * * * * * * * * * * * * * * * * * * * * * * * * * * * * * * * * //

dimensions      [0 2 -2 0 0 0 0];

internalField   nonuniform List<scalar> 
12842
(
1.0806
1.14495
1.17399
1.23098
1.32265
1.44397
1.59455
1.78176
2.02539
2.36197
2.8433
3.52685
4.46107
5.66732
7.12601
8.77717
10.5331
12.2982
13.9884
15.543
16.9292
18.1318
19.1674
0.817131
0.876681
0.871582
0.869093
0.868869
0.857834
0.825226
0.768014
0.701534
0.666972
0.731101
0.975669
1.47911
2.29191
3.41653
4.80518
6.37406
8.02633
9.67389
11.248
12.7063
14.0112
15.1792
0.607988
0.65545
0.621746
0.564952
0.48153
0.350377
0.147993
-0.139591
-0.500821
-0.889282
-1.22256
-1.3943
-1.29664
-0.852713
-0.0432391
1.0897
2.46108
3.9712
5.53006
7.06444
8.52782
9.86183
11.0937
0.438997
0.478784
0.416457
0.307046
0.148195
-0.0930361
-0.455292
-0.963418
-1.60915
-2.3405
-3.05858
-3.63158
-3.92222
-3.82941
-3.32179
-2.44169
-1.27972
0.0608359
1.4908
2.93536
4.34875
5.65197
6.89125
0.300603
0.342547
0.246707
0.088095
-0.136398
-0.477547
-0.989614
-1.70802
-2.62797
-3.69237
-4.78547
-5.74974
-6.41858
-6.66827
-6.45868
-5.8371
-4.90239
-3.76124
-2.49894
-1.18961
0.125692
1.34766
2.54937
0.187594
0.240399
0.104256
-0.0952086
-0.373361
-0.803007
-1.45178
-2.36595
-3.54518
-4.92857
-6.3843
-7.73039
-8.77164
-9.36283
-9.45678
-9.10824
-8.42536
-7.51719
-6.46197
-5.33166
-4.15893
-3.06306
-1.93675
0.0964885
0.164575
-0.0171451
-0.244238
-0.563496
-1.06883
-1.83732
-2.92777
-4.34568
-6.02836
-7.83016
-9.54739
-10.9578
-11.8952
-12.3049
-12.25
-11.8477
-11.2087
-10.401
-9.49422
-8.50769
-7.58328
-6.5662
0.0243266
0.107268
-0.121559
-0.361256
-0.711188
-1.27878
-2.14686
-3.38962
-5.01987
-6.97615
-9.10323
-11.1803
-12.9602
-14.255
-14.9989
-15.2615
-15.1685
-14.8329
-14.3101
-13.67
-12.9103
-12.2078
-11.3276
-0.0370004
0.0620545
-0.207652
-0.441935
-0.809955
-1.4191
-2.35593
-3.71109
-5.50371
-7.67382
-10.0612
-12.4328
-14.5228
-16.1234
-17.1572
-17.7004
-17.8859
-17.8314
-17.5771
-17.1997
-16.6558
-16.2008
-15.4476
-0.0923519
0.019887
-0.2856
-0.505366
-0.888625
-1.52883
-2.51838
-3.9622
-5.88398
-8.22244
-10.8149
-13.418
-15.7529
-17.5961
-18.8623
-19.6348
-20.055
-20.2459
-20.2357
-20.1049
-19.776
-19.5435
-18.9596
-0.13254
-0.0183344
-0.351874
-0.556108
-0.95799
-1.62612
-2.6649
-4.19122
-6.23404
-8.72923
-11.5154
-14.3396
-16.9142
-19.0003
-20.5047
-21.5168
-22.187
-22.6453
-22.9092
-23.0626
-22.9923
-23.0221
-22.6533
-0.159425
-0.0542266
-0.403506
-0.594704
-1.01682
-1.70824
-2.79241
-4.39424
-6.5499
-9.1914
-12.1629
-15.2033
-18.0197
-20.3568
-22.1126
-23.3798
-24.3177
-25.0661
-25.634
-26.1082
-26.3379
-26.6724
-26.5485
-0.177565
-0.0888899
-0.440511
-0.62383
-1.06519
-1.77464
-2.9002
-4.5706
-6.83184
-9.61195
-12.7649
-16.023
-19.0903
-21.6935
-23.7183
-25.2574
-26.4798
-27.5379
-28.4375
-29.2637
-29.836
-30.5041
-30.6632
-0.191357
-0.121475
-0.464612
-0.646464
-1.10404
-1.82701
-2.99028
-4.72337
-7.08439
-9.99846
-13.3325
-16.8142
-20.146
-23.0333
-25.3459
-27.1721
-28.6918
-30.0741
-31.3291
-32.5325
-33.492
-34.5079
-35.0069
-0.20407
-0.150059
-0.478454
-0.664933
-1.13444
-1.86766
-3.0652
-4.85612
-7.31203
-10.3572
-13.8737
-17.5866
-21.1978
-24.3882
-27.0065
-29.1323
-30.9586
-32.6756
-34.3054
-35.9072
-37.2955
-38.6748
-39.5684
-0.21803
-0.173029
-0.485228
-0.680726
-1.15749
-1.8988
-3.12724
-4.97186
-7.51818
-10.6924
-14.3926
-18.3446
-22.2495
-25.7613
-28.7022
-31.1379
-33.2764
-35.3335
-37.3511
-39.3685
-41.2162
-42.9812
-44.3058
-0.234397
-0.189529
-0.488026
-0.694663
-1.17446
-1.92232
-3.17832
-5.07288
-7.70525
-11.0064
-14.891
-19.0891
-23.3012
-27.1526
-30.4326
-33.1879
-35.6415
-38.0397
-40.4505
-42.8953
-45.2191
-47.3972
-49.1708
-0.253122
-0.199533
-0.489326
-0.706937
-1.18636
-1.93947
-3.21974
-5.1606
-7.87465
-11.3002
-15.3692
-19.8191
-24.3514
-28.5613
-32.1987
-35.2838
-38.0532
-40.7874
-43.5872
-46.4622
-49.265
-51.8826
-54.1135
-0.273258
-0.203742
-0.490732
-0.717522
-1.19418
-1.95121
-3.25247
-5.23587
-8.02695
-11.5735
-15.8259
-20.5322
-25.3975
-29.986
-34.0019
-37.4289
-40.5115
-43.5672
-46.7366
-50.0278
-53.296
-56.3703
-59.0619
-0.293566
-0.203356
-0.49309
-0.726257
-1.19848
-1.95798
-3.27695
-5.29903
-8.16232
-11.8261
-16.26
-21.2268
-26.4386
-31.4289
-35.8481
-39.6308
-43.0187
-46.366
-49.8614
-53.5265
-57.2234
-60.7531
-63.9073
-0.312695
-0.199836
-0.49661
-0.733234
-1.20008
-1.96055
-3.29386
-5.35035
-8.28039
-12.0566
-16.6691
-21.8996
-27.472
-32.8902
-37.7428
-41.8967
-45.5744
-49.1616
-52.9042
-56.8582
-60.9117
-64.865
-68.475
-0.329985
-0.194428
-0.501236
-0.738098
-1.19849
-1.95817
-3.30244
-5.38954
-8.38136
-12.2656
-17.0536
-22.5511
-28.4996
-34.3751
-39.6948
-44.2363
-48.178
-51.9261
-55.791
-59.8929
-64.1768
-68.4645
-72.4869
-0.343802
-0.188439
-0.506445
-0.741732
-1.19564
-1.95304
-3.30434
-5.41686
-8.46373
-12.4495
-17.4083
-23.1749
-29.5154
-35.8819
-41.7107
-46.6619
-50.8352
-54.6358
-58.4426
-62.4724
-66.7756
-71.2283
-75.542
-0.353614
-0.182276
-0.511061
-0.739846
-1.18587
-1.94017
-3.29739
-5.43415
-8.53008
-12.6063
-17.7173
-23.7333
-30.4541
-37.3224
-43.6952
-49.0919
-53.4888
-57.2464
-60.7939
-64.4689
-68.4952
-72.835
-77.1206
-0.371371
-0.182828
-0.519279
-0.73883
-1.17731
-1.92927
-3.29239
-5.45163
-8.58934
-12.7431
-17.9854
-24.2276
-31.311
-38.6844
-45.6314
-51.5116
-56.1263
-59.7252
-62.7476
-65.6812
-68.9752
-72.6688
-76.3652
-0.382648
-0.182468
-0.525249
-0.735513
-1.16884
-1.92224
-3.2965
-5.48486
-8.66958
-12.9042
-18.2766
-24.7414
-32.1848
-40.0718
-47.6166
-54.0019
-58.8074
-62.1029
-64.3244
-66.1822
-68.2791
-70.667
-73.1466
-0.386349
-0.180393
-0.527147
-0.728826
-1.15949
-1.91739
-3.30589
-5.52584
-8.75732
-13.0692
-18.564
-25.2416
-33.0385
-41.4475
-49.6222
-56.5576
-61.567
-64.4772
-65.7519
-66.3526
-66.8732
-67.4151
-68.1632
-0.386261
-0.17788
-0.525797
-0.719666
-1.14926
-1.91305
-3.31644
-5.56677
-8.84091
-13.2226
-18.83
-25.71
-33.8561
-42.8004
-51.6494
-59.2079
-64.4903
-67.0537
-67.4018
-66.6294
-65.3335
-63.8808
-62.6778
-0.384611
-0.17554
-0.522215
-0.709705
-1.1396
-1.91004
-3.32801
-5.60597
-8.91769
-13.3611
-19.0719
-26.145
-34.6381
-44.1347
-53.7138
-62.0007
-67.7061
-70.1157
-69.6422
-67.3586
-64.2971
-61.1917
-58.2335
-0.382256
-0.173345
-0.517284
-0.70036
-1.13191
-1.90959
-3.34163
-5.64424
-8.98886
-13.4868
-19.293
-26.5509
-35.3887
-45.4556
-55.8304
-64.9884
-71.3677
-73.9364
-72.7379
-68.9526
-64.607
-60.4891
-56.3569
-0.379982
-0.17127
-0.511866
-0.692646
-1.12694
-1.91208
-3.35735
-5.68146
-9.0546
-13.6003
-19.4944
-26.9279
-36.1062
-46.7596
-58.0029
-68.2168
-75.616
-78.7073
-76.9486
-72.1234
-67.277
-62.8086
-58.2611
-0.378602
-0.169434
-0.506763
-0.687015
-1.12457
-1.91685
-3.37399
-5.71631
-9.1138
-13.7011
-19.6753
-27.2741
-36.7857
-48.0382
-60.2285
-71.7229
-80.5532
-84.5607
-82.7031
-77.7731
-73.2048
-68.8763
-64.5885
-0.378611
-0.167868
-0.502434
-0.683408
-1.12412
-1.92269
-3.38989
-5.74711
-9.16501
-13.7881
-19.8345
-27.5866
-37.4197
-49.2785
-62.4962
-75.5222
-86.2246
-91.6446
-90.5638
-86.5891
-82.8693
-79.0462
-75.4229
-0.380019
-0.166456
-0.498991
-0.681274
-1.12449
-1.92812
-3.40334
-5.77247
-9.20735
-13.8613
-19.9717
-27.8632
-38.002
-50.4671
-64.7891
-79.6035
-92.6325
-100.15
-100.942
-98.7728
-96.1986
-93.088
-90.2109
-0.382551
-0.164984
-0.496257
-0.679891
-1.12464
-1.93189
-3.41314
-5.79166
-9.24067
-13.921
-20.0867
-28.1019
-38.5251
-51.5875
-67.0783
-83.9211
-99.7478
-110.213
-113.881
-114.005
-112.65
-110.322
-108.011
-0.385809
-0.163281
-0.493977
-0.678513
-1.12365
-1.93315
-3.4187
-5.80476
-9.26565
-13.9683
-20.1804
-28.3013
-38.9826
-52.6219
-69.324
-88.3985
-107.508
-121.781
-129.004
-131.51
-131.287
-129.692
-127.714
-0.389435
-0.161233
-0.491872
-0.676597
-1.12104
-1.93162
-3.42022
-5.81254
-9.28357
-14.0045
-20.2534
-28.4596
-39.3666
-53.5484
-71.4718
-92.9283
-115.787
-134.55
-145.527
-150.165
-150.972
-149.951
-148.118
-0.393107
-0.158812
-0.489725
-0.673765
-1.11663
-1.92745
-3.41833
-5.81622
-9.29589
-14.0311
-20.3063
-28.5749
-39.6692
-54.3425
-73.4562
-97.3763
-124.362
-147.964
-162.433
-168.717
-170.316
-169.559
-167.69
-0.396581
-0.156022
-0.487342
-0.669867
-1.11056
-1.92114
-3.41397
-5.81704
-9.30396
-14.0488
-20.3389
-28.6447
-39.8815
-54.976
-75.2007
-101.582
-132.904
-161.301
-178.698
-186.155
-188.253
-187.553
-185.54
-0.399652
-0.152908
-0.484601
-0.664869
-1.10306
-1.91324
-3.40802
-5.81608
-9.30863
-14.0582
-20.351
-28.6662
-39.9947
-55.4196
-76.6237
-105.365
-141.006
-173.839
-193.53
-201.958
-204.595
-204.084
-201.842
-0.402192
-0.14951
-0.481408
-0.658884
-1.09453
-1.90438
-3.40125
-5.81401
-9.31032
-14.059
-20.3414
-28.6367
-39.9997
-55.6429
-77.6412
-108.531
-148.22
-184.904
-206.374
-215.797
-219.145
-218.968
-216.358
-0.404118
-0.145886
-0.477745
-0.652074
-1.0853
-1.89506
-3.39418
-5.81119
-9.30897
-14.0508
-20.3093
-28.5538
-39.8887
-55.6179
-78.1731
-110.882
-154.097
-193.909
-216.768
-227.076
-231.011
-231.079
-228.094
-0.405433
-0.142089
-0.47363
-0.644683
-1.07576
-1.88569
-3.38713
-5.80765
-9.30433
-14.0328
-20.2537
-28.4157
-39.6549
-55.3196
-78.1466
-112.225
-158.233
-200.373
-224.262
-235.015
-238.949
-238.938
-235.889
-0.406186
-0.13819
-0.469151
-0.636941
-1.06618
-1.87652
-3.38019
-5.80321
-9.29595
-14.0045
-20.1744
-28.2213
-39.2938
-54.7286
-77.5021
-112.388
-160.298
-203.902
-228.449
-239.068
-242.348
-241.775
-238.867
-0.406502
-0.134254
-0.46441
-0.629091
-1.05681
-1.86772
-3.37335
-5.79762
-9.28348
-13.9656
-20.0711
-27.9708
-38.8025
-53.8316
-76.1956
-111.233
-160.053
-204.247
-229.059
-239.08
-241.44
-240.121
-237.2
-0.406515
-0.130344
-0.45953
-0.621297
-1.04773
-1.85927
-3.36639
-5.79051
-9.26654
-13.9159
-19.9444
-27.6648
-38.1811
-52.6228
-74.2004
-108.674
-157.37
-201.384
-226.085
-235.286
-236.822
-234.964
-231.803
-0.40638
-0.126513
-0.454604
-0.613668
-1.03897
-1.85105
-3.35909
-5.78162
-9.24506
-13.8557
-19.7952
-27.3054
-37.4319
-51.105
-71.5082
-104.685
-152.244
-195.521
-219.845
-228.179
-228.973
-226.766
-223.288
-0.406131
-0.122702
-0.44963
-0.606159
-1.03038
-1.84284
-3.35116
-5.77073
-9.21908
-13.7856
-19.6252
-26.896
-36.5614
-49.292
-68.1376
-99.3071
-144.808
-186.953
-210.642
-218.128
-218.228
-215.635
-211.896
-0.405532
-0.118963
-0.444593
-0.598692
-1.0218
-1.83451
-3.34294
-5.75937
-9.19256
-13.714
-19.4507
-26.469
-35.6311
-47.3055
-64.3063
-92.9146
-135.717
-176.596
-199.449
-206.037
-205.427
-202.448
-198.548
-0.407425
-0.116531
-0.440592
-0.591628
-1.01315
-1.82603
-3.33545
-5.75133
-9.17494
-13.6609
-19.3117
-26.1036
-34.792
-45.4413
-60.5602
-86.4309
-126.338
-166.123
-188.1
-193.708
-192.387
-189.07
-185.05
-0.408879
-0.113567
-0.43606
-0.58367
-1.00343
-1.81702
-3.32982
-5.75052
-9.17486
-13.6427
-19.2383
-25.8584
-34.1603
-43.9436
-57.4023
-80.7476
-117.883
-156.677
-177.666
-182.254
-180.382
-176.785
-172.623
-0.409816
-0.109931
-0.430719
-0.57436
-0.992191
-1.80733
-3.32662
-5.75852
-9.19493
-13.6631
-19.235
-25.7418
-33.7574
-42.8738
-54.995
-76.1817
-110.784
-148.526
-168.275
-171.844
-169.547
-165.659
-161.305
-0.410711
-0.105918
-0.42467
-0.563734
-0.979564
-1.79736
-3.32659
-5.77613
-9.23522
-13.7198
-19.2955
-25.7421
-33.5679
-42.2195
-53.3499
-72.8081
-105.145
-141.666
-159.9
-162.497
-159.801
-155.612
-151.064
-0.411591
-0.101609
-0.417882
-0.551802
-0.965713
-1.78754
-3.33034
-5.80365
-9.2946
-13.8089
-19.4092
-25.8379
-33.5541
-41.9178
-52.3733
-70.5054
-100.805
-135.858
-152.384
-154.062
-150.965
-146.505
-141.811
-0.4123
-0.0969944
-0.410392
-0.538872
-0.951251
-1.77866
-3.33834
-5.84026
-9.3694
-13.9216
-19.5588
-25.9976
-33.6606
-41.8736
-51.9124
-69.0423
-97.5034
-130.842
-145.597
-146.409
-142.916
-138.242
-133.458
-0.412656
-0.0920596
-0.402179
-0.525058
-0.93646
-1.77119
-3.35107
-5.88606
-9.4585
-14.0547
-19.7359
-26.2038
-33.8536
-42.024
-51.856
-68.2453
-95.0579
-126.444
-139.401
-139.384
-135.524
-130.689
-125.881
-0.413002
-0.0870065
-0.393697
-0.510978
-0.922038
-1.76562
-3.36823
-5.93921
-9.5573
-14.1992
-19.924
-26.426
-34.0791
-42.2527
-51.9443
-67.6078
-92.6161
-121.58
-132.802
-132.121
-128.034
-123.143
-118.416
-0.412177
-0.0809209
-0.383592
-0.495266
-0.90642
-1.7598
-3.38602
-5.9926
-9.6529
-14.3334
-20.0871
-26.6065
-34.2484
-42.4268
-52.0272
-67.0635
-90.3565
-116.754
-126.384
-125.221
-120.994
-116.079
-111.452
-0.411347
-0.0750951
-0.373794
-0.480444
-0.892716
-1.75715
-3.40768
-6.04867
-9.74627
-14.4562
-20.2215
-26.7351
-34.3352
-42.4776
-51.957
-66.3294
-87.835
-111.594
-119.847
-118.351
-114.066
-109.192
-104.698
-0.410636
-0.0697491
-0.364722
-0.467106
-0.881522
-1.75802
-3.433
-6.10664
-9.83645
-14.5674
-20.3285
-26.8131
-34.3357
-42.3807
-51.6687
-65.3043
-84.9639
-106.131
-113.161
-111.406
-107.11
-102.325
-97.9839
-0.409854
-0.0646318
-0.356125
-0.454889
-0.872141
-1.76107
-3.45971
-6.16335
-9.91977
-14.6633
-20.4063
-26.8395
-34.2509
-42.1383
-51.1645
-64.0248
-81.859
-100.541
-106.434
-104.443
-100.152
-95.4878
-91.2972
-0.408977
-0.0596531
-0.34793
-0.443562
-0.863985
-1.76513
-3.48588
-6.21622
-9.9936
-14.7419
-20.4554
-26.8181
-34.0911
-41.776
-50.4844
-62.5625
-78.6167
-94.9064
-99.7045
-97.491
-93.2274
-88.719
-84.6721
-0.40813
-0.0548531
-0.340195
-0.433032
-0.856686
-1.76943
-3.51039
-6.2641
-10.0575
-14.8044
-20.481
-26.7593
-33.877
-41.3348
-49.6876
-60.9851
-75.283
-89.2567
-93.002
-90.5946
-86.3859
-82.0595
-78.1546
-0.407398
-0.0502437
-0.332902
-0.423114
-0.849812
-1.77325
-3.53241
-6.30647
-10.1121
-14.8533
-20.4893
-26.6752
-33.6314
-40.8574
-48.834
-59.3424
-71.8799
-83.6182
-86.3693
-83.8072
-79.6849
-75.5387
-71.7938
-0.406799
-0.0457745
-0.32592
-0.413513
-0.84287
-1.77597
-3.55144
-6.34335
-10.1587
-14.8916
-20.4866
-26.5775
-33.3753
-40.3785
-47.9699
-57.6597
-68.4246
-78.0266
-79.8563
-77.1776
-73.163
-69.1915
-65.6268
-0.406303
-0.0413733
-0.319087
-0.403933
-0.835444
-1.77716
-3.56731
-6.37521
-10.1988
-14.9224
-20.4779
-26.4746
-33.1217
-39.9164
-47.1134
-55.9335
-64.9297
-72.5204
-73.5076
-70.7401
-66.8458
-63.0483
-59.6774
-0.405881
-0.0369863
-0.312272
-0.394167
-0.827309
-1.77672
-3.58033
-6.40304
-10.2343
-14.9487
-20.467
-26.3726
-32.877
-39.4727
-46.2571
-54.1461
-61.4133
-67.1427
-67.3586
-64.5237
-60.7517
-57.1361
-53.9551
-0.405496
-0.0325742
-0.305388
-0.384108
-0.818421
-1.77483
-3.59109
-6.42799
-10.267
-14.9725
-20.456
-26.2733
-32.6388
-39.0341
-45.375
-52.2755
-57.8964
-61.9306
-61.4345
-58.5513
-54.9046
-51.4775
-48.4711
-0.405116
-0.0281169
-0.298386
-0.373732
-0.808872
-1.77183
-3.60033
-6.45121
-10.2983
-14.9953
-20.445
-26.1757
-32.3996
-38.5803
-44.4382
-50.3098
-54.4039
-56.9161
-55.7642
-52.843
-49.3243
-46.0937
-43.2609
-0.404703
-0.0235981
-0.291242
-0.363075
-0.798837
-1.7681
-3.6087
-6.4735
-10.3288
-15.0167
-20.432
-26.0748
-32.1477
-38.0879
-43.4212
-48.2478
-50.9611
-52.1224
-50.3726
-47.4141
-44.0329
-40.9922
-38.3345
-0.404226
-0.0190222
-0.283963
-0.352213
-0.788523
-1.76405
-3.61673
-6.49535
-10.3584
-15.0359
-20.4138
-25.9645
-31.8713
-37.5381
-42.311
-46.1018
-47.5923
-47.5686
-45.2804
-42.2827
-39.0446
-36.1798
-33.6811
-0.403662
-0.0143968
-0.276575
-0.341256
-0.778147
-1.75997
-3.62471
-6.51676
-10.3864
-15.0508
-20.386
-25.8368
-31.5593
-36.9176
-41.105
-43.8907
-44.3151
-43.264
-40.5005
-37.4642
-34.3709
-31.6779
-29.3485
-0.403003
-0.00974991
-0.269124
-0.330314
-0.767889
-1.75609
-3.63277
-6.53749
-10.4119
-15.0593
-20.3445
-25.6853
-31.204
-36.2219
-39.812
-41.6397
-41.1431
-39.2126
-36.0434
-32.9778
-30.0218
-27.4961
-25.3452
-0.40225
-0.00510369
-0.26166
-0.319501
-0.757898
-1.75253
-3.6408
-6.55698
-10.4335
-15.059
-20.2858
-25.5043
-30.8002
-35.4518
-38.4454
-39.3749
-38.0853
-35.417
-31.9162
-28.8305
-25.9994
-23.6215
-21.6166
-0.401413
-0.000493275
-0.25424
-0.308898
-0.748252
-1.74927
-3.64859
-6.57465
-10.45
-15.0482
-20.2075
-25.2909
-30.347
-34.6141
-37.0239
-37.1226
-35.154
-31.8835
-28.1275
-25.0256
-22.3003
-20.0608
-18.2021
-0.40051
0.0040643
-0.246905
-0.298572
-0.738992
-1.74625
-3.6558
-6.58977
-10.4603
-15.0254
-20.1079
-25.0436
-29.8456
-33.7168
-35.5654
-34.9046
-32.3613
-28.6122
-24.68
-21.5704
-18.9468
-16.8305
-15.1372
-0.399555
0.00854556
-0.239692
-0.288543
-0.73008
-1.74331
-3.6621
-6.60177
-10.4636
-14.99
-19.987
-24.7638
-29.3006
-32.7702
-34.0883
-32.7415
-29.7195
-25.6009
-21.5718
-18.4682
-15.9389
-13.9244
-12.3623
-0.398564
0.0129535
-0.232608
-0.278812
-0.721466
-1.7403
-3.66711
-6.61009
-10.4593
-14.9413
-19.845
-24.4531
-28.7171
-31.7838
-32.606
-30.6486
-27.2374
-22.8444
-18.7901
-15.7065
-13.2488
-11.3452
-9.90135
-0.397542
0.0172836
-0.225656
-0.26934
-0.713048
-1.73701
-3.67054
-6.6144
-10.4471
-14.8796
-19.683
-24.1145
-28.1011
-30.768
-31.1292
-28.6394
-24.9194
-20.3371
-16.3162
-13.2808
-10.9057
-9.12918
-7.79481
-0.396491
0.0215562
-0.218812
-0.260092
-0.704748
-1.73329
-3.67216
-6.61439
-10.4269
-14.805
-19.5019
-23.7502
-27.4575
-29.7304
-29.6653
-26.722
-22.7624
-18.0707
-14.1311
-11.172
-8.91744
-7.25521
-5.98483
-0.395404
0.0257757
-0.21206
-0.251008
-0.696462
-1.729
-3.67179
-6.61
-10.3986
-14.7179
-19.3029
-23.3625
-26.7908
-28.6785
-28.2195
-24.9045
-20.7646
-16.0388
-12.2189
-9.35396
-7.21756
-5.64676
-4.43882
-0.394272
0.0299666
-0.205367
-0.242057
-0.688143
-1.72406
-3.66935
-6.60114
-10.3625
-14.6184
-19.0863
-22.9523
-26.1026
-27.616
-26.7936
-23.1916
-18.9228
-14.2324
-10.5568
-7.80955
-5.78689
-4.30176
-3.17422
-0.393082
0.034128
-0.19872
-0.233197
-0.679733
-1.71842
-3.66482
-6.58787
-10.3185
-14.5069
-18.8527
-22.5202
-25.3944
-26.5466
-25.3889
-21.5833
-17.234
-12.64
-9.1309
-6.52322
-4.61889
-3.21725
-2.14762
-0.39182
0.0382769
-0.192097
-0.224427
-0.67124
-1.71209
-3.6582
-6.57017
-10.2667
-14.3829
-18.6017
-22.0658
-24.6662
-25.4729
-24.0045
-20.0761
-15.6949
-11.2476
-7.92879
-5.46504
-3.66381
-2.33416
-1.31421
-0.390476
0.0424008
-0.185502
-0.215733
-0.662647
-1.70506
-3.6495
-6.54807
-10.207
-14.2465
-18.3329
-21.5889
-23.9186
-24.3988
-22.6454
-18.6695
-14.3025
-10.0456
-6.92484
-4.60171
-2.89843
-1.63827
-0.683863
-0.38904
0.046508
-0.178927
-0.20714
-0.653994
-1.69737
-3.63875
-6.52147
-10.1391
-14.0969
-18.0455
-21.0883
-23.1513
-23.328
-21.3171
-17.3606
-13.0505
-9.01912
-6.09851
-3.91764
-2.32349
-1.13488
-0.225518
-0.387505
0.0505779
-0.172387
-0.19865
-0.645282
-1.68902
-3.6259
-6.49026
-10.0627
-13.9337
-17.739
-20.5641
-22.3652
-22.2657
-20.0236
-16.1453
-11.9327
-8.15144
-5.43563
-3.40016
-1.90054
-0.77314
0.105172
-0.385863
0.0546155
-0.16588
-0.190295
-0.636552
-1.68004
-3.6109
-6.45421
-9.97733
-13.756
-17.4124
-20.0155
-21.56
-21.2165
-18.7689
-15.018
-10.9408
-7.4291
-4.90952
-3.01423
-1.60027
-0.527174
0.307507
-0.38411
0.0585983
-0.159423
-0.182076
-0.62779
-1.67038
-3.59365
-6.41307
-9.8825
-13.5633
-17.0656
-19.4431
-20.7374
-20.1863
-17.563
-13.9756
-10.0674
-6.83242
-4.49903
-2.73783
-1.41644
-0.396857
0.406852
-0.382239
0.0625331
-0.153013
-0.174018
-0.619022
-1.66002
-3.57401
-6.3665
-9.77763
-13.3547
-16.6979
-18.8477
-19.8987
-19.1801
-16.4167
-13.0143
-9.30208
-6.34196
-4.19467
-2.5608
-1.32094
-0.348073
0.44636
-0.380246
0.0663992
-0.146662
-0.166112
-0.610212
-1.64889
-3.55182
-6.3142
-9.66227
-13.1299
-16.3099
-18.2312
-19.0464
-18.2029
-15.3388
-12.1325
-8.63403
-5.94879
-3.97353
-2.4585
-1.28656
-0.353394
0.411083
-0.378123
0.0702065
-0.14036
-0.158372
-0.601366
-1.63693
-3.52689
-6.25578
-9.5359
-12.8884
-15.9015
-17.5951
-18.1825
-17.2584
-14.3386
-11.3276
-8.05731
-5.63244
-3.81397
-2.40991
-1.31407
-0.421031
0.322375
-0.375865
0.0739369
-0.134119
-0.150785
-0.592439
-1.62405
-3.49904
-6.19094
-9.39814
-12.6303
-15.474
-16.9421
-17.3089
-16.3477
-13.4257
-10.5944
-7.56288
-5.3739
-3.70813
-2.40828
-1.37912
-0.52583
0.207657
-0.373469
0.0775985
-0.127918
-0.143346
-0.58341
-1.61017
-3.46811
-6.11942
-9.2488
-12.3556
-15.0281
-16.2739
-16.4281
-15.4769
-12.6115
-9.9318
-7.13439
-5.16728
-3.63536
-2.42934
-1.45346
-0.633407
0.0758301
-0.370927
0.0811909
-0.121778
-0.136068
-0.574276
-1.59522
-3.43387
-6.04081
-9.08738
-12.0642
-14.5655
-15.5945
-15.5352
-14.6165
-11.8719
-9.32535
-6.76441
-4.99375
-3.58155
-2.47035
-1.55661
-0.772589
-0.0979115
-0.368368
0.0846554
-0.115649
-0.128859
-0.565061
-1.57959
-3.39735
-5.95687
-8.91643
-11.7597
-14.0895
-14.9065
-14.6505
-13.8433
-11.3021
-8.84199
-6.48244
-4.83513
-3.50693
-2.46562
-1.60587
-0.860097
-0.204184
-0.366202
0.0881084
-0.109575
-0.121743
-0.55585
-1.56296
-3.35644
-5.86155
-8.72381
-11.4229
-13.5832
-14.2095
-13.6938
-12.7542
-10.356
-8.11115
-6.07936
-4.65535
-3.48305
-2.53491
-1.74236
-1.04482
-0.422266
-0.360124
0.0946747
-0.0996013
-0.111127
-0.542091
-1.53804
-3.29885
-5.73598
-8.485
-11.0247
-13.0276
-13.5528
-12.9146
-11.9849
-9.86828
-7.82487
-5.94976
-4.62414
-3.51397
-2.60342
-1.84078
-1.17534
-0.583574
-0.355309
0.100058
-0.0907797
-0.102204
-0.529191
-1.50982
-3.22813
-5.58132
-8.19839
-10.558
-12.3938
-12.855
-12.1301
-11.176
-9.31317
-7.46593
-5.73724
-4.49808
-3.4585
-2.60911
-1.88841
-1.27319
-0.730439
-0.3522
0.103351
-0.0843893
-0.0967857
-0.519568
-1.48146
-3.14812
-5.4017
-7.86791
-10.026
-11.6665
-12.041
-11.1946
-10.1256
-8.46324
-6.84044
-5.33702
-4.22827
-3.31163
-2.55069
-1.91143
-1.36652
-0.87943
-0.349087
0.105697
-0.0791579
-0.0935401
-0.511424
-1.45016
-3.05443
-5.19076
-7.4851
-9.42187
-10.8385
-11.0928
-10.1194
-8.9271
-7.44639
-6.04408
-4.78055
-3.83132
-3.04727
-2.3994
-1.85528
-1.39644
-0.994621
-0.345037
0.107827
-0.0741002
-0.0911366
-0.502505
-1.41202
-2.94082
-4.9399
-7.03932
-8.73692
-9.90975
-10.0253
-8.9626
-7.70244
-6.39145
-5.1713
-4.11075
-3.30842
-2.65352
-2.1254
-1.69393
-1.34076
-1.02391
-0.340065
0.109679
-0.0691281
-0.0890611
-0.491447
-1.36431
-2.80309
-4.64416
-6.52591
-7.96842
-8.8851
-8.85663
-7.75011
-6.4803
-5.32861
-4.25409
-3.36517
-2.68124
-2.14577
-1.73242
-1.40055
-1.13769
-0.913397
-0.334247
0.111122
-0.0642667
-0.0870558
-0.477286
-1.30507
-2.63862
-4.30176
-5.94586
-7.12088
-7.77747
-7.60917
-6.49109
-5.25144
-4.24667
-3.30705
-2.5639
-1.99258
-1.54368
-1.20668
-0.959163
-0.769193
-0.606217
-0.327486
0.112178
-0.0593479
-0.08455
-0.458702
-1.23214
-2.4453
-3.91269
-5.30419
-6.2068
-6.61212
-6.3199
-5.21162
-4.02446
-3.14693
-2.33032
-1.71239
-1.22787
-0.855158
-0.570019
-0.354796
-0.207273
-0.0984462
-0.31962
0.112946
-0.0540651
-0.080839
-0.434217
-1.14344
-2.22182
-3.4791
-4.61061
-5.24769
-5.42628
-5.03762
-3.96004
-2.83475
-2.04704
-1.33623
-0.808534
-0.394808
-0.0690013
0.172108
0.355814
0.492588
0.585311
-0.310633
0.113414
-0.0482473
-0.0752149
-0.402452
-1.03753
-1.96881
-3.00738
-3.88202
-4.27499
-4.26545
-3.81517
-2.79377
-1.74145
-1.00778
-0.371924
0.0891678
0.454063
0.738173
0.956025
1.11406
1.23502
1.32894
-0.300542
0.11354
-0.0417575
-0.0671293
-0.362484
-0.914248
-1.68994
-2.50953
-3.14336
-3.32804
-3.17826
-2.70489
-1.77339
-0.822914
-0.136768
0.441713
0.856104
1.18553
1.43696
1.63384
1.78492
1.88955
1.96049
-0.289394
0.11326
-0.034525
-0.0560656
-0.313889
-0.775109
-1.39237
-2.00298
-2.42515
-2.44832
-2.20945
-1.74973
-0.942899
-0.132456
0.480889
0.990009
1.36319
1.66467
1.90171
2.08124
2.21307
2.30362
2.36083
-0.277149
0.112614
-0.0263804
-0.0416768
-0.257055
-0.623729
-1.08679
-1.5086
-1.75775
-1.67027
-1.38932
-0.969276
-0.305021
0.342414
0.858056
1.27988
1.60337
1.87131
2.08243
2.24153
2.35679
2.43432
2.48132
-0.263798
0.111649
-0.0172205
-0.0238414
-0.193421
-0.466024
-0.786654
-1.04748
-1.16481
-1.01255
-0.724732
-0.354322
0.172419
0.660525
1.07279
1.40399
1.66645
1.8879
2.06365
2.19297
2.28276
2.34134
2.37759
-0.249292
0.110525
-0.00694715
-0.00299228
-0.125909
-0.310258
-0.507004
-0.638171
-0.660585
-0.477771
-0.203465
0.119484
0.52309
0.866636
1.1769
1.42366
1.62664
1.79693
1.9265
2.01801
2.0809
2.12297
2.14827
-0.233658
0.109347
0.00430095
0.0197849
-0.0589528
-0.166471
-0.263152
-0.296423
-0.253749
-0.0634796
0.186728
0.465018
0.760756
0.985323
1.20346
1.37855
1.52715
1.64344
1.72378
1.77773
1.81445
1.83955
1.85407
-0.216873
0.108321
0.016251
0.0425721
0.00172444
-0.045433
-0.069515
-0.0362894
0.0461479
0.227312
0.446025
0.677571
0.88393
1.0303
1.18044
1.3
1.39756
1.46411
1.50474
1.5304
1.54777
1.55956
1.56546
-0.199018
0.107593
0.0283486
0.0630255
0.0502583
0.0434491
0.0628188
0.131505
0.230231
0.389838
0.571966
0.752553
0.889549
0.995617
1.1042
1.18701
1.24674
1.28007
1.29728
1.30745
1.31522
1.32177
1.32449
-0.180084
0.107491
0.04019
0.0790824
0.0825608
0.0954679
0.130962
0.20719
0.302285
0.433066
0.57638
0.7055
0.791419
0.877586
0.959449
1.01651
1.05094
1.06675
1.07356
1.07801
1.08307
1.0864
1.08521
-0.160127
0.10846
0.0517837
0.0903995
0.0990158
0.114732
0.145867
0.210092
0.28924
0.390564
0.495379
0.577766
0.63126
0.703317
0.76386
0.803125
0.825119
0.835972
0.842941
0.849966
0.856686
0.861075
0.861692
-0.139055
0.111376
0.0643416
0.0995783
0.10626
0.115712
0.132982
0.177096
0.237064
0.313394
0.383124
0.425161
0.460295
0.517106
0.558818
0.585174
0.600785
0.610911
0.61993
0.629308
0.638785
0.646508
0.650632
-0.116767
0.117422
0.0802261
0.112078
0.115742
0.118523
0.122888
0.148359
0.191706
0.247706
0.287168
0.297701
0.321589
0.359358
0.383704
0.399839
0.410333
0.41841
0.426902
0.43726
0.448897
0.459149
0.465835
-0.0932006
0.127708
0.10196
0.133488
0.13755
0.13852
0.136068
0.149033
0.179944
0.217438
0.230421
0.22247
0.237931
0.257326
0.268349
0.275776
0.280294
0.284677
0.291367
0.301367
0.313199
0.323911
0.331445
-0.0687754
0.141917
0.129564
0.164369
0.172869
0.176706
0.173333
0.180397
0.203227
0.223663
0.214326
0.200854
0.20987
0.216222
0.218501
0.218789
0.218345
0.219585
0.224528
0.233266
0.243754
0.253396
0.260383
-0.0451818
0.156548
0.157391
0.196829
0.210908
0.219164
0.218208
0.2244
0.241009
0.245338
0.223841
0.213722
0.21688
0.21512
0.211116
0.20602
0.201635
0.200174
0.202883
0.20899
0.216507
0.223291
0.227883
-0.0255973
0.164244
0.174394
0.2158
0.232689
0.243442
0.246033
0.254611
0.266095
0.257778
0.238667
0.236864
0.237269
0.232468
0.22603
0.219154
0.213873
0.211996
0.213796
0.218226
0.22353
0.227973
0.230504
-0.014876
0.154762
0.167397
0.207099
0.224509
0.236667
0.242694
0.251237
0.253246
0.239188
0.231748
0.235778
0.234486
0.22901
0.222177
0.215551
0.211011
0.209478
0.210799
0.213928
0.217294
0.219558
0.22004
-0.0142267
0.126057
0.133182
0.164879
0.175723
0.182269
0.187037
0.194971
0.194892
0.189815
0.196143
0.20373
0.204053
0.200859
0.196492
0.192655
0.190563
0.19073
0.192899
0.196011
0.198737
0.200119
0.199769
-0.0287324
0.0667663
0.0605341
0.0937113
0.128676
0.16452
0.170023
0.131777
0.073983
0.0420659
0.0425475
0.0498652
0.0535125
0.0545318
0.0544579
0.0544888
0.0555254
0.058014
0.0615895
0.0652828
0.0680569
0.0692766
0.0688173
-0.0115705
0.0510443
0.0228646
0.00484415
-0.0289651
-0.0432693
-0.0104391
0.063588
0.129651
0.153264
0.141627
0.123229
0.112974
0.107436
0.102852
0.0994134
0.0978202
0.0980024
0.0992477
0.100573
0.101094
0.100387
0.0984921
2.23628
2.30368
2.52742
2.94515
3.51486
4.28215
5.29525
6.62274
8.32183
10.4425
13.0019
15.9866
19.3467
22.9987
26.8255
30.6847
34.4222
37.8912
40.9753
43.6033
45.7593
47.4646
48.8119
2.19143
2.2816
2.48916
2.88594
3.43551
4.17397
5.15034
6.42477
8.0517
10.0777
12.5219
15.3715
18.5768
22.052
25.6771
29.3087
32.7948
35.9952
38.8028
41.1583
43.0562
44.5301
45.6729
2.13448
2.23651
2.42787
2.79581
3.31487
4.01157
4.93254
6.13102
7.65742
9.55528
11.8457
14.5192
17.5296
20.7931
24.1905
27.5799
30.8126
33.7543
36.3055
38.4158
40.0867
41.361
42.3293
2.06249
2.16213
2.33701
2.66879
3.14587
3.78716
4.63385
5.73298
7.13034
8.86643
10.9644
13.4198
16.1929
19.2064
22.3469
25.4772
28.454
31.149
33.4689
35.3685
36.8525
37.9672
38.7989
1.96912
2.05262
2.20927
2.49867
2.92176
3.49311
4.24648
5.22258
6.46237
8.00351
9.87121
12.0671
14.5611
17.286
20.1386
22.9907
25.7072
28.1663
30.2802
32.0061
33.3484
34.3521
35.0966
1.84008
1.90244
2.03668
2.27806
2.63553
3.12179
3.76249
4.5915
5.64467
6.9572
8.5565
10.452
12.6254
15.0244
17.5604
20.1185
22.5743
24.8121
26.7493
28.3435
29.5957
30.5444
31.2569
1.6534
1.70412
1.80992
1.99699
2.27782
2.66255
3.16851
3.82169
4.65254
5.69422
6.97771
8.52254
10.3265
12.3568
14.545
16.7943
18.9936
21.0361
22.8418
24.366
25.6013
26.5732
27.3303
1.38733
1.44484
1.51589
1.64159
1.83438
2.09839
2.44253
2.88401
3.44773
4.16676
5.07936
6.22012
7.60827
9.23515
11.0558
12.993
14.9495
16.8272
18.5456
20.0532
21.3306
22.3859
23.2517
2.33538
2.07689
2.62928
3.1044
3.7027
4.58777
5.63221
7.1509
9.06585
11.4524
14.3377
17.6535
21.4238
25.5927
30.0999
34.7934
39.4777
43.9462
48.0245
51.5995
54.6199
57.1034
59.0877
2.34494
2.08703
2.63271
3.11288
3.71544
4.59947
5.65193
7.17148
9.08917
11.4839
14.3756
17.7176
21.5244
25.7527
30.3381
35.1359
39.9545
44.5909
48.8694
52.6681
55.9233
58.6382
60.8355
2.35454
2.09768
2.63413
3.11898
3.72692
4.60937
5.66983
7.18853
9.10745
11.5066
14.4
17.7581
21.5874
25.8541
30.4906
35.3583
40.2702
45.0279
49.4567
53.4289
56.8729
59.7778
62.1575
2.36386
2.10921
2.63321
3.12139
3.73511
4.61542
5.6836
7.19995
9.11891
11.5191
14.41
17.7748
21.6135
25.8985
30.5607
35.4656
40.4315
45.2642
49.7918
53.8835
57.4631
60.508
63.0282
2.3728
2.1222
2.63014
3.11963
3.73822
4.61532
5.68991
7.20194
9.11882
11.5168
14.4013
17.7647
21.6013
25.887
30.5513
35.4635
40.4461
45.3096
49.8852
54.0415
57.7005
60.8309
63.4427
2.38077
2.13731
2.62573
3.1144
3.73656
4.60944
5.68937
7.19544
9.10859
11.5017
14.3772
17.7327
21.5575
25.8283
30.4734
35.3648
40.3295
45.1819
49.7568
53.9238
57.6057
60.7655
63.4165
2.38715
2.15492
2.62106
3.10735
3.7315
4.5993
5.68341
7.18233
9.09032
11.4767
14.342
17.6858
21.4926
25.7368
30.3454
35.192
40.1075
44.9105
49.4396
53.5665
57.2171
60.3515
62.99
2.39115
2.17489
2.61622
3.0991
3.72349
4.58497
5.67144
7.16139
9.06207
11.4391