/*--------------------------------*- C++ -*----------------------------------*\
  =========                 |
  \\      /  F ield         | OpenFOAM: The Open Source CFD Toolbox
   \\    /   O peration     | Website:  https://openfoam.org
    \\  /    A nd           | Version:  7
     \\/     M anipulation  |
\*---------------------------------------------------------------------------*/
FoamFile
{
    version     2.0;
    format      ascii;
    class       volScalarField;
    location    "15";
    object      k;
}
// * * * * * * * * * * * * * * * * * * * * * * * * * * * * * * * * * * * * * //

dimensions      [0 2 -2 0 0 0 0];

internalField   nonuniform List<scalar> 
17475
(
0.00763376
0.0124982
0.0125514
0.0125508
0.0125506
0.0125505
0.0125506
0.0125505
0.0125504
0.0125502
0.0125503
0.0125506
0.0125503
0.0125503
0.0125505
0.0125504
0.0125504
0.0125506
0.0125503
0.0125502
0.0125508
0.012551
0.0125496
0.0125516
0.012547
0.0125588
0.0125589
0.0125591
0.0125592
0.0125589
0.0125588
0.0125587
0.0125587
0.0125586
0.0125586
0.0125584
0.0125583
0.0125581
0.0125586
0.0125629
0.0125696
0.012576
0.0125821
0.0125878
0.0125928
0.0125975
0.0126017
0.0126056
0.0126092
0.0126126
0.0126156
0.0126185
0.0126207
0.0126102
0.0120188
0.000246657
0.00440652
0.0052852
0.0053041
0.00529492
0.00529087
0.00528905
0.00528775
0.00528685
0.00528608
0.00528579
0.00528528
0.00528544
0.00528519
0.00528498
0.00528562
0.00528556
0.0052851
0.00528478
0.00528449
0.00528417
0.00528409
0.00528526
0.00528319
0.00528757
0.00529127
0.00529397
0.00529406
0.00529439
0.00529359
0.00529334
0.00529347
0.00529366
0.00529339
0.00529329
0.005293
0.00529286
0.00529255
0.0052919
0.00529315
0.00529469
0.00529694
0.00529916
0.00530113
0.00530357
0.00530564
0.00530725
0.0053091
0.00531171
0.0053151
0.00531875
0.00532433
0.00532141
0.00502914
0.00163098
3.08923e-05
0.00184338
0.00307667
0.00319539
0.00318697
0.00317811
0.00317392
0.00317124
0.00316873
0.00316677
0.00316603
0.00316492
0.00316585
0.00316502
0.00316334
0.00316409
0.00316421
0.00316336
0.00316297
0.00316281
0.00316167
0.00316222
0.00316163
0.00316289
0.00316458
0.00316601
0.00316776
0.00316832
0.00316842
0.0031675
0.00316731
0.00316777
0.00316844
0.00316779
0.00316831
0.00316858
0.00316797
0.00316732
0.0031674
0.00316823
0.00316801
0.00316934
0.00317021
0.00317055
0.00317236
0.00317374
0.00317483
0.003177
0.00318002
0.00318528
0.00319237
0.00320156
0.00315726
0.0024957
0.000283179
9.84746e-06
0.000846305
0.0020105
0.00223695
0.00224491
0.00223444
0.00222837
0.00222456
0.00222208
0.0022194
0.00221703
0.00221521
0.00221703
0.00221667
0.00221308
0.00221246
0.00221275
0.00221279
0.0022122
0.00221268
0.00221155
0.00221111
0.00221085
0.00221099
0.00221225
0.0022128
0.00221405
0.00221469
0.00221393
0.00221359
0.00221425
0.00221449
0.00221525
0.00221393
0.00221523
0.00221712
0.00221595
0.00221504
0.0022151
0.00221518
0.00221579
0.00221692
0.00221694
0.00221805
0.00221996
0.00222094
0.00222335
0.00222752
0.00223123
0.00223785
0.00224678
0.00224971
0.00213746
0.00133172
8.89277e-05
4.46382e-06
0.000437983
0.00138297
0.00168701
0.00171874
0.00170884
0.00170209
0.00169769
0.00169707
0.00169445
0.00169361
0.00169169
0.00169053
0.0016893
0.00168502
0.00168144
0.0016815
0.001684
0.001684
0.0016854
0.00168524
0.00168495
0.00168491
0.00168381
0.0016836
0.00168303
0.00168403
0.00168407
0.00168328
0.00168348
0.00168511
0.0016853
0.00168465
0.00168433
0.00168708
0.00168914
0.00168812
0.00168789
0.00168791
0.00168646
0.00168765
0.00168888
0.00168988
0.00169177
0.00169329
0.00169443
0.00169794
0.00170152
0.00170797
0.00171567
0.00172194
0.00171015
0.00153507
0.000769897
4.17827e-05
2.44119e-06
0.000254998
0.000984119
0.00132071
0.00137838
0.0013744
0.00136884
0.00136488
0.00135926
0.00135453
0.00135823
0.0013598
0.00136004
0.00135874
0.00135327
0.00134858
0.00134751
0.00135007
0.00135157
0.00135347
0.00135311
0.00135319
0.00135379
0.00135097
0.00134811
0.00134854
0.00134962
0.00134982
0.00135069
0.00134908
0.00135175
0.0013547
0.0013507
0.00134812
0.00135015
0.0013509
0.00135419
0.00135627
0.00135542
0.00135632
0.00136104
0.00136478
0.00136159
0.00135976
0.00136148
0.00136418
0.00137036
0.00136849
0.00137593
0.00138556
0.00138924
0.00136197
0.00114434
0.00048465
2.43537e-05
1.51462e-06
0.000164459
0.000727518
0.00106864
0.00113943
0.0011464
0.00114079
0.00113716
0.00112257
0.0011225
0.00111949
0.0011281
0.00112859
0.00112769
0.00112383
0.00112151
0.00111755
0.00111958
0.00111957
0.00112106
0.0011223
0.00112868
0.00113027
0.00112422
0.00112298
0.00112376
0.00112429
0.00112541
0.00112528
0.00111962
0.00111941
0.00112763
0.00112372
0.00112359
0.00112286
0.00111936
0.00112399
0.00112892
0.00112736
0.00112287
0.00113297
0.00113315
0.001133
0.00113425
0.00114025
0.00114589
0.00114901
0.00114213
0.00114706
0.00116053
0.00116172
0.00112258
0.000884369
0.000332981
1.61002e-05
1.04295e-06
0.000116533
0.000561055
0.000893459
0.000976059
0.000980785
0.000982167
0.0009874
0.000966338
0.000961108
0.000955856
0.000955816
0.000968143
0.000958321
0.000954007
0.00094872
0.000948475
0.000964892
0.000960784
0.00095783
0.000962529
0.000973283
0.000970526
0.000965234
0.000972276
0.000970673
0.000966524
0.000965939
0.000965395
0.000955883
0.000958569
0.000961403
0.000961665
0.000963223
0.000948906
0.000952675
0.000961393
0.000967264
0.000961654
0.000960217
0.000968435
0.000978223
0.000972728
0.000975619
0.000995137
0.000998921
0.000979715
0.000973495
0.000989385
0.00099212
0.000999688
0.000951224
0.000707641
0.000246507
1.15196e-05
7.7684e-07
8.84062e-05
0.000445996
0.000755503
0.000837648
0.000853445
0.000860113
0.000862964
0.000838242
0.000833945
0.000842447
0.000842462
0.000844807
0.000830201
0.000822597
0.000837462
0.000830384
0.00085671
0.00085146
0.000846268
0.000845481
0.000840365
0.00083963
0.000848644
0.000843092
0.000861381
0.000847681
0.000840464
0.000840716
0.000827047
0.000833084
0.00083143
0.000833216
0.000846552
0.000825265
0.000828495
0.000845105
0.000845487
0.000843941
0.00083359
0.000844209
0.00086632
0.000853827
0.000851136
0.000874346
0.000879134
0.000856922
0.000850794
0.000837839
0.000882097
0.000888724
0.000825548
0.0005861
0.000194162
8.89974e-06
6.06605e-07
6.94942e-05
0.00036328
0.000656609
0.000729518
0.000780921
0.00075851
0.000768046
0.000773592
0.000795893
0.000756731
0.000750885
0.000754465
0.000763287
0.000738127
0.000739339
0.000739415
0.000745189
0.000765416
0.000759122
0.000762807
0.000758367
0.00075573
0.000756562
0.00074505
0.000739261
0.000758848
0.00074546
0.000743418
0.00073404
0.000737536
0.000710516
0.000723009
0.0007493
0.0007435
0.000745404
0.000759001
0.000735624
0.000761328
0.000732802
0.000751696
0.000767751
0.000760034
0.000761668
0.000772095
0.000757943
0.000778634
0.000755567
0.000791118
0.000776041
0.000795249
0.000729259
0.000493257
0.000159009
7.25983e-06
4.98386e-07
5.74881e-05
0.000309428
0.000576412
0.000681079
0.000714407
0.000730695
0.000788316
0.000763576
0.000794865
0.000728275
0.000723368
0.000728971
0.000697367
0.000701153
0.000724693
0.000700829
0.000740791
0.000695564
0.000683481
0.00069207
0.000683056
0.000685404
0.000677931
0.00067223
0.000694923
0.000683134
0.000665883
0.000667876
0.000666604
0.000659911
0.000665769
0.00067389
0.000704655
0.000686858
0.000685851
0.000685582
0.000721977
0.000704931
0.000689555
0.000691357
0.000725704
0.000689654
0.000689511
0.00069562
0.000712898
0.000726348
0.000737281
0.000727611
0.000729194
0.000724456
0.000659341
0.000421984
0.000132245
5.96395e-06
4.13513e-07
4.79966e-05
0.000269028
0.000511867
0.000650574
0.000698326
0.000758771
0.000747562
0.000754971
0.000759432
0.000782279
0.000720402
0.000731128
0.000804739
0.000703618
0.000704501
0.000703317
0.000715258
0.000697303
0.000669077
0.000666014
0.000710148
0.000705
0.000656699
0.000644409
0.000656698
0.000708402
0.000665705
0.000706241
0.000651675
0.000654175
0.000712262
0.000720671
0.000701093
0.00066609
0.000666964
0.000753977
0.000723268
0.000706644
0.000678201
0.00067978
0.000709174
0.000759632
0.000664538
0.000718057
0.000720692
0.000677102
0.00070949
0.00072506
0.000702041
0.000659576
0.000566335
0.000367139
0.000111059
5.12714e-06
3.66575e-07
4.19741e-05
0.000231557
0.000463578
0.000647417
0.000719862
0.000821551
0.000867122
0.000767359
0.000782644
0.000794631
0.000762096
0.000804161
0.000808862
0.000757814
0.000781123
0.000732741
0.000720798
0.000707103
0.000683308
0.000671598
0.000740378
0.000747544
0.000678834
0.000659337
0.000682117
0.000741113
0.000689482
0.000682116
0.00071331
0.000733109
0.000705835
0.000706034
0.000766673
0.000683156
0.000766808
0.000795262
0.00081144
0.000737964
0.000715099
0.000684298
0.000724087
0.000751279
0.000761665
0.000682197
0.000688391
0.00068508
0.000763538
0.000738837
0.000686937
0.00064236
0.000532203
0.000326872
0.000110824
4.9127e-06
3.70288e-07
4.28936e-05
0.000240075
0.000461902
0.000690411
0.000766375
0.000873147
0.000981623
0.000930455
0.000966188
0.000843999
0.000884543
0.000877873
0.000869353
0.000900215
0.000911672
0.000837065
0.000870228
0.000809877
0.000782493
0.000722494
0.000763044
0.000764238
0.000726076
0.000750515
0.000743146
0.000743399
0.000792332
0.000708237
0.000754068
0.000773818
0.000758051
0.000727042
0.000735134
0.000758618
0.000830866
0.000778171
0.000779434
0.000752726
0.000847229
0.000789591
0.000845244
0.000829434
0.000815934
0.000738985
0.000737088
0.00075693
0.000802685
0.000759654
0.000698851
0.000642558
0.000517838
0.000310726
0.000102491
4.8937e-06
3.83495e-07
4.32963e-05
0.000250973
0.000511581
0.000740648
0.000827484
0.000920903
0.000922378
0.000939245
0.000945626
0.00100998
0.000945835
0.000923508
0.000897622
0.000970743
0.000881361
0.000875682
0.000872052
0.000835482
0.000773842
0.000780111
0.00079566
0.000770658
0.000766686
0.000815924
0.0008453
0.000871469
0.000846865
0.000845541
0.000861125
0.000824649
0.000830502
0.000821256
0.000775056
0.00079085
0.000835397
0.000812554
0.000918707
0.000804454
0.000820149
0.000845295
0.000886971
0.000905832
0.000829813
0.000780482
0.000764604
0.000852729
0.000916774
0.00079602
0.000762636
0.000660734
0.000565323
0.00031977
0.000100609
4.99374e-06
4.11825e-07
4.57493e-05
0.00028342
0.000583472
0.000758897
0.000856672
0.000944264
0.000980692
0.00097951
0.000999957
0.000983841
0.00110039
0.000947209
0.000925221
0.000949243
0.000899931
0.000932445
0.000911671
0.000861445
0.000805187
0.000841617
0.000832694
0.000922424
0.00090839
0.000933646
0.000973762
0.00098729
0.000963822
0.000970741
0.00098504
0.000950896
0.000942004
0.000911195
0.000847894
0.000870901
0.000901251
0.000876315
0.000914406
0.000946903
0.000949803
0.000883932
0.000900074
0.000916486
0.000889486
0.000808378
0.000801536
0.000866665
0.000943648
0.000898055
0.000824349
0.000687654
0.000574747
0.00034105
0.000110075
5.34662e-06
4.53948e-07
5.16244e-05
0.000299984
0.000608168
0.000787158
0.000963546
0.000965982
0.000998209
0.00101519
0.00103586
0.00106598
0.00105494
0.00100574
0.000979287
0.00101684
0.000936961
0.000992109
0.000983882
0.000876709
0.000841076
0.000920629
0.000981606
0.000947321
0.00105768
0.0011687
0.00119095
0.00100529
0.000895325
0.000895381
0.00111547
0.00132042
0.00121054
0.00100647
0.000999589
0.000965646
0.000907221
0.000904842
0.000942111
0.000942453
0.000926152
0.000943973
0.000987795
0.000940531
0.000897601
0.000855386
0.000874978
0.000895543
0.000952188
0.000922783
0.000849497
0.000743216
0.000591323
0.000360229
0.000126118
5.86025e-06
4.49396e-07
5.67928e-05
0.000335468
0.000597434
0.000879232
0.000990667
0.00105256
0.00102005
0.00104394
0.00104715
0.00106801
0.00107989
0.00107397
0.00105668
0.00107617
0.000986279
0.000996558
0.00100729
0.00091199
0.000972747
0.00110059
0.00116826
0.0012328
0.00128587
0.00107345
0.000393492
5.7142e-06
3.12571e-05
0.000940988
0.00131794
0.00137577
0.00118237
0.00111166
0.000991445
0.000986742
0.000977214
0.000973667
0.000955396
0.000987544
0.00100838
0.000989593
0.000938801
0.000897941
0.000900729
0.000929537
0.000973041
0.000932794
0.000892547
0.000777223
0.000601336
0.000422633
0.000137769
6.38911e-06
1.84131e-07
4.57107e-05
0.000302142
0.000597276
0.000876733
0.00103116
0.00106031
0.00107148
0.0010754
0.00107876
0.00108394
0.00109943
0.00109803
0.00106779
0.00104301
0.00102193
0.00099516
0.000985992
0.00097869
0.00099722
0.00108539
0.0012597
0.00125109
0.00107179
0.000323809
1.40796e-06
0.000754891
0.00133132
0.00131689
0.00114733
0.00103272
0.000987307
0.00100889
0.00101268
0.00100084
0.00100599
0.00100929
0.000994301
0.000954236
0.00091869
0.000916849
0.000956509
0.000988792
0.000940952
0.000894352
0.000783442
0.000630766
0.000445001
0.000139447
6.19803e-06
3.73586e-07
7.32978e-05
0.000410793
0.000794323
0.00103231
0.0011783
0.00125893
0.00121742
0.00125504
0.00125361
0.00124258
0.00121527
0.00121825
0.00124558
0.00118685
0.0011678
0.00119283
0.00118633
0.00115174
0.00114615
0.00118439
0.00133603
0.00120218
0.000674852
4.54006e-05
0.000232455
0.00117868
0.00137312
0.00126389
0.00116671
0.00110207
0.00114034
0.00117702
0.00115991
0.00112129
0.00113702
0.00118236
0.00110504
0.00106233
0.00104977
0.00107716
0.00110381
0.0011681
0.0010661
0.000940397
0.000795389
0.000554609
0.000210614
1.03368e-05
6.5385e-07
8.19435e-05
0.000454742
0.000840907
0.00108169
0.00128306
0.00128388
0.00125629
0.00136372
0.00123188
0.00129506
0.00122336
0.00121857
0.00132349
0.00118743
0.00116022
0.00119684
0.00115063
0.00117127
0.00115709
0.00127565
0.00125428
0.00116449
0.000428656
2.629e-05
4.62533e-07
2.01839e-06
0.000139428
0.000911044
0.00124429
0.00124498
0.00117096
0.00110961
0.00121907
0.00118882
0.00118045
0.00112228
0.00113749
0.00118108
0.00127007
0.00109644
0.00116474
0.00109796
0.00111
0.00111782
0.00114451
0.00101071
0.000804634
0.000554863
0.000193503
9.68096e-06
7.37176e-07
8.25625e-05
0.00045167
0.00083582
0.00110206
0.00122945
0.0012619
0.00126589
0.00128504
0.00126009
0.0013153
0.00140347
0.00127765
0.00126119
0.00119144
0.00116479
0.00126944
0.00117936
0.0011697
0.00118494
0.00128373
0.00121073
0.00109736
0.000364221
4.41191e-05
3.48326e-05
8.45518e-05
0.000138207
0.0001265
8.39086e-05
2.9257e-05
0.000128378
0.000743009
0.00124978
0.00126717
0.00128132
0.00114045
0.00117936
0.00120426
0.00118778
0.00113378
0.00121864
0.00122843
0.00123187
0.00109037
0.00113628
0.0011339
0.00113345
0.00113125
0.00117391
0.0011006
0.000853164
0.000569519
0.000197466
9.77328e-06
7.60877e-07
8.36247e-05
0.00047809
0.000872117
0.00112031
0.00123313
0.00136639
0.00129835
0.00128826
0.00133757
0.00139365
0.00136467
0.00129779
0.00131091
0.0012336
0.00116536
0.00119852
0.00117212
0.00117879
0.00123663
0.00127135
0.00120139
0.00099483
0.000340427
9.31565e-05
0.000274653
0.000684786
0.000910486
0.000894952
0.000618448
0.000193221
0.000154034
0.000623891
0.00115262
0.00129696
0.00126166
0.00117845
0.00122759
0.00122259
0.00118749
0.0012526
0.00125617
0.00128553
0.00118413
0.00113451
0.00121081
0.00125139
0.00115691
0.00114298
0.00117713
0.00107471
0.000894031
0.00058583
0.000198573
9.74253e-06
7.67193e-07
8.48082e-05
0.000520086
0.000891914
0.0012181
0.00135038
0.00136555
0.00135863
0.00142726
0.00133105
0.00132677
0.00132115
0.00127942
0.0013207
0.00123677
0.00116953
0.00118612
0.00115804
0.00118749
0.00125011
0.00120608
0.00116437
0.000853566
0.000427176
0.00018922
0.000545276
0.00113378
0.00126561
0.00124227
0.00106548
0.000459368
0.000258397
0.000558874
0.00101312
0.00119001
0.00126308
0.00126121
0.00126474
0.00122741
0.00118655
0.00125446
0.00128088
0.00128615
0.00116611
0.00116419
0.00118646
0.00124684
0.0011925
0.00116326
0.00113967
0.00112442
0.000927972
0.000607567
0.000225189
1.00886e-05
7.58389e-07
8.34644e-05
0.000491135
0.00094829
0.00123359
0.00137476
0.00138872
0.001338
0.00139861
0.00133421
0.00139428
0.00130019
0.00127097
0.00126287
0.00125536
0.00120601
0.00124816
0.00115595
0.0011816
0.00120228
0.00117964
0.00109518
0.000806197
0.00050681
0.000342177
0.000754366
0.00153628
0.00161617
0.00157209
0.00141213
0.000675983
0.00044001
0.000609485
0.00096188
0.00120991
0.00122054
0.00127659
0.00122601
0.00125489
0.00119716
0.00124983
0.00123512
0.00128452
0.00116383
0.00115694
0.00123509
0.00122388
0.00127906
0.00119138
0.00120424
0.00106188
0.000954629
0.000626816
0.000211813
9.95804e-06
7.54939e-07
8.56248e-05
0.000512494
0.000988491
0.00121674
0.00132732
0.00136392
0.00137906
0.00141801
0.00134129
0.00141666
0.00133675
0.0012912
0.00130107
0.00124213
0.00119487
0.00123869
0.00116024
0.0011597
0.00121215
0.0011781
0.00107359
0.000806034
0.000624597
0.000553079
0.000983541
0.00196212
0.00199811
0.00195148
0.00172837
0.000864558
0.000621535
0.000755583
0.00096009
0.00116315
0.00121373
0.00119988
0.00120311
0.00129629
0.00122341
0.00122796
0.00122983
0.00129483
0.00117207
0.00115411
0.0012256
0.00119637
0.00123217
0.00127109
0.00115945
0.00104571
0.000940625
0.000636255
0.000207867
9.60635e-06
7.30511e-07
8.18825e-05
0.000474037
0.000907439
0.00113515
0.00125784
0.00128145
0.00129176
0.00132423
0.00130876
0.00132742
0.00126628
0.00125469
0.00122483
0.00119275
0.00120328
0.00117942
0.00119015
0.0011545
0.00124949
0.00129997
0.00107548
0.000901837
0.000721784
0.000826947
0.00133608
0.0024085
0.0023693
0.00234956
0.00204072
0.00108136
0.000794095
0.000833264
0.000984721
0.00116038
0.00117983
0.00118381
0.00121399
0.00121409
0.00124847
0.00116366
0.00121997
0.00123798
0.00121252
0.00117209
0.0011995
0.00118136
0.00124589
0.00122349
0.00114428
0.00110227
0.00101124
0.000683885
0.00021489
9.58597e-06
7.27851e-07
8.11485e-05
0.000477132
0.000974878
0.00118912
0.00121072
0.00124122
0.00126055
0.00126951
0.00126301
0.001269
0.001232
0.00122807
0.00126687
0.00115852
0.00117648
0.00116216
0.00123752
0.00115457
0.00119021
0.00120187
0.00107831
0.00092214
0.000849775
0.000993433
0.00169023
0.00286917
0.00269395
0.00273316
0.00230344
0.00122851
0.000893151
0.000868269
0.00103073
0.00117652
0.00114947
0.00115845
0.00117661
0.0012584
0.00117561
0.00115794
0.00117221
0.00121641
0.00122478
0.00121631
0.00120082
0.00118434
0.001202
0.00124392
0.00113177
0.00109087
0.000983343
0.00068036
0.000201417
9.01141e-06
7.36397e-07
8.28127e-05
0.000487502
0.000975514
0.00119684
0.00122266
0.00128215
0.00123955
0.00125922
0.0012495
0.00128191
0.00119392
0.00117955
0.00117611
0.00113451
0.00113025
0.00117102
0.00116643
0.0011551
0.00119817
0.00118895
0.00108853
0.000922284
0.000851628
0.00110143
0.00193376
0.00324606
0.00293663
0.00306331
0.00246093
0.00128408
0.000930394
0.000882992
0.00105779
0.00113053
0.00121153
0.00121548
0.00115727
0.00124465
0.00113864
0.0011187
0.00113713
0.00116018
0.0011933
0.00128455
0.00121079
0.00128209
0.00118252
0.00117631
0.0011212
0.00105414
0.000921016
0.000630705
0.00019021
8.47559e-06
7.26004e-07
8.48475e-05
0.0005127
0.000971891
0.00121065
0.00124691
0.00126729
0.00128622
0.00129868
0.00125349
0.00121363
0.00115953
0.00119078
0.00114138
0.00116775
0.00115422
0.0012211
0.00121599
0.00119977
0.00113171
0.00112596
0.00107444
0.000956447
0.000931156
0.00111797
0.00205019
0.00345873
0.00305407
0.00324591
0.00244416
0.00127826
0.000934162
0.000930901
0.00103823
0.00118029
0.001204
0.00118604
0.00121111
0.00124602
0.00112595
0.00111318
0.00113934
0.00117953
0.00117877
0.00129064
0.00131924
0.00124901
0.00122014
0.00122002
0.00114772
0.00105013
0.000965979
0.000655534
0.000184714
8.05273e-06
6.70791e-07
7.87361e-05
0.000470618
0.000915097
0.0011615
0.00118789
0.00118297
0.00125729
0.00122109
0.00122425
0.0011973
0.00117374
0.00112642
0.0011656
0.00115417
0.00114747
0.00118225
0.00117767
0.00114372
0.00111817
0.00112958
0.0010888
0.00100354
0.000940333
0.00113497
0.0020572
0.00344605
0.00305834
0.0032508
0.00233972
0.00126445
0.000964444
0.000948105
0.00106437
0.00117117
0.00119945
0.00122698
0.00121699
0.00118489
0.00115207
0.00107947
0.00110167
0.00118053
0.0011915
0.00122862
0.00134362
0.00133427
0.00128351
0.00118494
0.00108988
0.0010329
0.000952853
0.000607506
0.000184617
7.79063e-06
6.05269e-07
7.12833e-05
0.000426069
0.000856998
0.00108813
0.00114037
0.00117852
0.00117398
0.00116734
0.00114798
0.00115433
0.00114379
0.00111438
0.00111712
0.00112428
0.0010955
0.00111215
0.00113626
0.0011088
0.00110449
0.00111192
0.00104373
0.00103234
0.000964531
0.00116001
0.00205323
0.00322855
0.00289236
0.00305493
0.0022152
0.00123642
0.000952095
0.000948911
0.00107131
0.00114021
0.00114331
0.00114003
0.00115791
0.00109127
0.00111414
0.00109706
0.00112473
0.00114264
0.00117833
0.00125237
0.00130087
0.0012937
0.00119144
0.00112542
0.00112555
0.00106389
0.000948033
0.000629828
0.000171644
7.21735e-06
5.42912e-07
6.32194e-05
0.0004011
0.000801892
0.0010212
0.00108586
0.00112354
0.0011221
0.00116862
0.00118767
0.00113017
0.00118449
0.00118898
0.00110576
0.00106208
0.00104833
0.00104614
0.00108961
0.00109935
0.00110686
0.00109749
0.00102934
0.00101812
0.00100012
0.0011723
0.00199035
0.00288361
0.00261024
0.00273378
0.0020809
0.00124987
0.000955956
0.000943434
0.00103219
0.00106342
0.00108528
0.00107223
0.00111121
0.00107389
0.00104731
0.00109524
0.00109101
0.00112687
0.00118887
0.00117926
0.00124053
0.00122449
0.00118039
0.0011424
0.00109222
0.00103605
0.00087889
0.000608333
0.000164811
6.97776e-06
5.23908e-07
6.00052e-05
0.000364092
0.000744033
0.000935385
0.00102177
0.00108792
0.00111911
0.00111648
0.00114159
0.00112271
0.00114672
0.00116392
0.00113281
0.0010323
0.00101574
0.00101432
0.00103005
0.00104266
0.00104029
0.00105441
0.00100941
0.00100483
0.000980847
0.00123142
0.00190162
0.0025147
0.00224638
0.00239283
0.00195629
0.00123517
0.000954991
0.000939403
0.00099003
0.00106495
0.00102582
0.0010425
0.00103434
0.0010311
0.00102062
0.00104136
0.00109663
0.00108889
0.00117371
0.0011434
0.0011797
0.00114999
0.00111206
0.00113445
0.00103887
0.000984244
0.000858445
0.000586207
0.000165627
6.75157e-06
5.22181e-07
5.9717e-05
0.000374345
0.000714109
0.000904905
0.00100192
0.00104065
0.00108112
0.0011029
0.00116526
0.00112413
0.00120584
0.00116787
0.00112509
0.00104544
0.00100291
0.00100798
0.0010314
0.00101693
0.00103302
0.00101664
0.000991587
0.000958029
0.000973232
0.00122395
0.00180104
0.002193
0.00192514
0.00210438
0.00183963
0.00120777
0.000962347
0.00097
0.000973215
0.00101076
0.000998986
0.000997717
0.00107395
0.0010046
0.000998299
0.00102258
0.00104477
0.00110087
0.00115712
0.00114101
0.00111564
0.00114965
0.0011419
0.00108111
0.0010278
0.000962385
0.000841587
0.000539934
0.000153796
6.52826e-06
5.07997e-07
5.68685e-05
0.000342601
0.000674553
0.000877526
0.000995614
0.00103532
0.00106794
0.00112059
0.00114663
0.00113563
0.00119314
0.00113847
0.00109483
0.00107157
0.00103094
0.00103987
0.00110186
0.00101193
0.00101839
0.0010386
0.000979431
0.000949283
0.000990961
0.00125958
0.00170608
0.00194116
0.00169219
0.00188671
0.00174487
0.00118829
0.000983302
0.00100309
0.000972207
0.000990979
0.00100201
0.000997271
0.00111199
0.00100625
0.00100137
0.00102289
0.00104424
0.00107618
0.00113632
0.00114151
0.00110983
0.00115402
0.00113018
0.00106106
0.00103154
0.000970206
0.000874237
0.000536573
0.00015092
6.3441e-06
5.09816e-07
5.76136e-05
0.000336698
0.000666203
0.000887069
0.00101006
0.00104568
0.00113147
0.00126365
0.00113232
0.00118243
0.00117547
0.00114197
0.00110013
0.00108633
0.00104423
0.00102707
0.00103768
0.00102586
0.00104569
0.00105916
0.000967072
0.000954128
0.00105521
0.00123445
0.00161927
0.00174376
0.00152164
0.00171003
0.00166172
0.00126573
0.00101301
0.00100103
0.000985374
0.000990047
0.00111667
0.00106925
0.00105851
0.00111815
0.00100483
0.00101449
0.00111139
0.00106433
0.00107493
0.0010839
0.00114033
0.00111813
0.00107504
0.00105203
0.00103479
0.00104254
0.000856454
0.000526946
0.000146794
6.24153e-06
5.13967e-07
5.74689e-05
0.000338112
0.000686715
0.000899003
0.00108319
0.00107534
0.00112421
0.00123493
0.0011444
0.00118622
0.00115247
0.00115183
0.00112788
0.00109549
0.00105999
0.00107073
0.00106761
0.00106952
0.00112381
0.00106681
0.000975852
0.000959641
0.00101169
0.00119458
0.00153598
0.00159863
0.00139828
0.00156747
0.00158758
0.00123279
0.00104816
0.00105998
0.00104243
0.000996686
0.00104858
0.00102565
0.00105451
0.00106994
0.00103808
0.00103083
0.00105989
0.00105545
0.00106642
0.0010658
0.00111329
0.00110824
0.00114746
0.00111113
0.00103326
0.00101192
0.000847303
0.000524957
0.000144383
6.20997e-06
5.21264e-07
5.83977e-05
0.000346029
0.000707023
0.000996577
0.00104348
0.00110043
0.00122315
0.00118532
0.00114699
0.00120463
0.00114914
0.00116468
0.00114891
0.00111616
0.00108126
0.00106545
0.0011104
0.00112867
0.0011332
0.00107225
0.0010054
0.000978674
0.00101674
0.00122283
0.00146495
0.00148905
0.00129918
0.00145563
0.00150909
0.00124716
0.00105086
0.00105575
0.00099348
0.00101338
0.00103989
0.00103011
0.00105619
0.0010892
0.0011464
0.00112001
0.00106199
0.00114047
0.00111274
0.00110367
0.00107232
0.00106464
0.00113647
0.00116119
0.00104421
0.00101437
0.000853694
0.000533992
0.000145888
6.18741e-06
5.38276e-07
5.95951e-05
0.000355997
0.000722214
0.000998808
0.00105994
0.00124352
0.00120072
0.00117861
0.00124046
0.00116304
0.00113964
0.00119017
0.00129175
0.00115802
0.00112656
0.00114769
0.00111435
0.00113162
0.00111907
0.00109306
0.00103026
0.00102293
0.00105594
0.00121386
0.00139508
0.00140105
0.00124115
0.00136406
0.00141216
0.00120474
0.00107811
0.00100901
0.000990053
0.0010459
0.00115568
0.00115923
0.00111182
0.00112587
0.00114968
0.00109998
0.00114551
0.00115164
0.00113224
0.00108242
0.00105062
0.00104269
0.00111278
0.00110511
0.00107886
0.000997835
0.000872999
0.000569053
0.000164314
6.61807e-06
5.64989e-07
6.30036e-05
0.000377057
0.000760073
0.00109763
0.00110042
0.00123368
0.00123722
0.00119201
0.00124751
0.00115496
0.00115898
0.00117786
0.00127842
0.00117
0.00112693
0.00114158
0.0011923
0.00116441
0.00115162
0.0011617
0.00107898
0.00113214
0.00108337
0.0011802
0.00131972
0.00131156
0.00118255
0.00126827
0.00133284
0.00120274
0.0010531
0.000992797
0.00101181
0.00106543
0.00118428
0.00117148
0.00120903
0.00115919
0.00114141
0.00110831
0.00114672
0.00114794
0.00112088
0.00114525
0.00106866
0.0010574
0.0010925
0.00113321
0.00108195
0.00104699
0.00099419
0.000610674
0.000172528
7.0559e-06
5.98737e-07
6.77384e-05
0.000410705
0.000789973
0.00104772
0.00110203
0.00118377
0.00125968
0.00124537
0.00123649
0.00115112
0.00117018
0.00117801
0.0012397
0.00122902
0.00113705
0.00111481
0.00113722
0.00111842
0.0011197
0.00118428
0.00110582
0.0010854
0.00109526
0.00115977
0.00126573
0.00123026
0.00113134
0.00121605
0.00132363
0.0011499
0.00102545
0.00100525
0.00103132
0.00120018
0.00121785
0.00119354
0.00119782
0.00116203
0.00114662
0.00114936
0.00112206
0.00114104
0.00113008
0.00109948
0.00114657
0.00106996
0.00109949
0.00110577
0.00106846
0.0010413
0.000968164
0.000619963
0.000169268
7.17921e-06
6.11118e-07
7.03541e-05
0.00042187
0.000822068
0.0011199
0.00118486
0.00127177
0.00133622
0.00138519
0.00123751
0.00118334
0.00117176
0.00118772
0.0012116
0.00127392
0.00116926
0.00111331
0.00116454
0.00108861
0.00113594
0.00116037
0.00109072
0.00107269
0.00109443
0.00116038
0.0012717
0.00120573
0.00107055
0.00116565
0.00125814
0.00111553
0.00101962
0.00102573
0.0010492
0.00117082
0.00117033
0.0011373
0.00117958
0.0011962
0.00121364
0.0012036
0.00115795
0.00122114
0.00112453
0.00111832
0.00115166
0.00110889
0.00114615
0.00109959
0.00106037
0.00102487
0.000936715
0.000598376
0.000166899
7.2362e-06
6.09534e-07
6.91498e-05
0.000417343
0.000837946
0.00110598
0.0011871
0.00121196
0.00126352
0.00129772
0.00123974
0.00120454
0.00122046
0.0012605
0.00120677
0.00122931
0.00121778
0.00113547
0.00113207
0.0010845
0.0011124
0.00112332
0.00113218
0.00116302
0.00110492
0.00120299
0.00124145
0.00114229
0.00107444
0.00113692
0.00121682
0.00110533
0.00106387
0.00103863
0.00107732
0.00113895
0.00114728
0.00112793
0.00116247
0.00121114
0.00121707
0.00116338
0.00116565
0.00115644
0.00112409
0.00112517
0.0011284
0.00115798
0.00109151
0.00108898
0.00114244
0.00108236
0.000966529
0.000601354
0.000171755
7.49805e-06
6.1803e-07
7.07688e-05
0.000437344
0.000894772
0.00115251
0.00128808
0.00126409
0.00128277
0.00131316
0.00123524
0.00121486
0.0012223
0.00124898
0.00124231
0.00121319
0.00119161
0.00114634
0.00112771
0.00114477
0.00111486
0.00113719
0.00119743
0.00117952
0.00111653
0.00115478
0.00118392
0.00113365
0.00102468
0.0011151
0.00116688
0.00110555
0.00106861
0.00104343
0.00106079
0.00110227
0.00114425
0.00113868
0.00115275
0.00124534
0.00116782
0.00121531
0.00115614
0.00115329
0.00112166
0.00112026
0.00110568
0.00112013
0.00109829
0.00107785
0.00113023
0.00104034
0.000936645
0.000637499
0.000172973
7.68584e-06
6.19491e-07
7.15321e-05
0.0004457
0.000852697
0.00114234
0.00124406
0.00129987
0.00132987
0.00132321
0.00130226
0.00123
0.00127818
0.00123011
0.00126568
0.00127572
0.00118342
0.00120496
0.00116066
0.00117737
0.00118109
0.0011324
0.00112935
0.00116161
0.00120202
0.001155
0.00119456
0.00108224
0.00100782
0.00113951
0.00117481
0.00109909
0.00105618
0.00104426
0.001055
0.00108954
0.00117326
0.00120912
0.00115929
0.00126145
0.00116022
0.00120391
0.00116102
0.00119042
0.00117628
0.00113852
0.00111367
0.00110544
0.00120347
0.00108411
0.00110224
0.00106982
0.000973491
0.000633989
0.000182138
8.07217e-06
6.12791e-07
7.03719e-05
0.000422575
0.000840278
0.00107309
0.00118349
0.00129385
0.00130652
0.00125434
0.00125205
0.001225
0.00122891
0.00122433
0.00132773
0.0012701
0.00127451
0.00120977
0.00118739
0.00116391
0.00112775
0.00113883
0.00112817
0.0011472
0.00114326
0.00118227
0.00116977
0.00105772
0.000983584
0.00106557
0.0011536
0.00114189
0.00104828
0.00107714
0.00106644
0.00113387
0.00113428
0.00119566
0.00116559
0.00124211
0.00117056
0.00118302
0.00117464
0.00117732
0.00117706
0.00112287
0.00111763
0.0012051
0.00119325
0.00109779
0.00112016
0.00114045
0.000954124
0.000622532
0.000185245
8.26105e-06
6.14019e-07
7.10192e-05
0.000433359
0.00086482
0.00105672
0.00115629
0.00122096
0.00126552
0.0012659
0.00132812
0.00123135
0.00124278
0.00122626
0.00128933
0.00126612
0.00125238
0.00120557
0.00117611
0.00117264
0.00112738
0.00122694
0.00113068
0.0011692
0.00118057
0.00113437
0.001118
0.00103931
0.000987971
0.00107283
0.00112443
0.00112449
0.00108138
0.00108467
0.00107273
0.00107569
0.00110565
0.00114931
0.00116664
0.00122176