/*--------------------------------*- C++ -*----------------------------------*\
  =========                 |
  \\      /  F ield         | OpenFOAM: The Open Source CFD Toolbox
   \\    /   O peration     | Website:  https://openfoam.org
    \\  /    A nd           | Version:  7
     \\/     M anipulation  |
\*---------------------------------------------------------------------------*/
FoamFile
{
    version     2.0;
    format      ascii;
    class       volScalarField;
    location    "15";
    object      nut;
}
// * * * * * * * * * * * * * * * * * * * * * * * * * * * * * * * * * * * * * //

dimensions      [0 2 -1 0 0 0 0];

internalField   nonuniform List<scalar> 
17475
(
3.12046e-05
0.000188848
0.00018808
0.000188028
0.000188026
0.000188026
0.000188026
0.000188026
0.000188026
0.000188025
0.000188025
0.000188025
0.000188025
0.000188025
0.000188026
0.000188027
0.000188027
0.000188026
0.000188026
0.000188025
0.000188025
0.000188025
0.000188025
0.000188026
0.000188025
0.000188028
0.000188028
0.000188028
0.000188028
0.000188028
0.000188027
0.000188028
0.000188028
0.000188027
0.000188027
0.000188027
0.000188026
0.000188026
0.000188027
0.000188029
0.00018803
0.000188032
0.000188033
0.000188034
0.000188036
0.000188037
0.000188038
0.000188038
0.00018804
0.000188041
0.000188042
0.000188043
0.000188053
0.000188286
0.000150677
9.23641e-07
0.00011534
0.000172081
0.000176585
0.000176756
0.00017677
0.000176774
0.000176772
0.000176764
0.000176754
0.000176754
0.000176745
0.000176757
0.000176753
0.000176751
0.000176775
0.000176777
0.000176764
0.000176757
0.000176749
0.000176739
0.000176739
0.000176747
0.000176746
0.00017677
0.000176765
0.000176763
0.000176761
0.00017677
0.000176757
0.000176754
0.000176759
0.000176766
0.000176757
0.000176754
0.000176745
0.000176741
0.000176738
0.000176745
0.000176757
0.000176746
0.000176749
0.000176748
0.000176742
0.000176753
0.000176754
0.00017674
0.000176733
0.000176742
0.000176764
0.000176757
0.000176703
0.00017536
0.000153938
1.68282e-05
1.19994e-07
5.91146e-05
0.000151113
0.000168244
0.000169941
0.000170053
0.0001701
0.000170111
0.000170068
0.000170025
0.000170029
0.000170002
0.000170077
0.000170053
0.000169981
0.000170036
0.000170056
0.000170023
0.000170015
0.000170017
0.000169967
0.000169983
0.000169973
0.000169962
0.000169999
0.00017
0.000169998
0.000169987
0.000169993
0.000169952
0.00016995
0.000169972
0.000170003
0.000169963
0.000169984
0.000169991
0.000169953
0.000169931
0.000169952
0.00016998
0.000169936
0.000169961
0.000169954
0.000169915
0.000169949
0.000169949
0.000169919
0.000169922
0.000169928
0.000169975
0.000169943
0.000169351
0.000161165
0.000102826
3.04192e-06
3.85434e-08
3.03632e-05
0.000127747
0.000159173
0.000164821
0.000165372
0.000165488
0.000165523
0.000165535
0.000165469
0.000165389
0.000165325
0.000165518
0.000165535
0.000165308
0.000165297
0.000165349
0.000165382
0.000165367
0.000165428
0.000165351
0.000165348
0.000165283
0.000165242
0.000165283
0.000165283
0.000165328
0.000165325
0.00016525
0.000165219
0.000165278
0.000165287
0.00016533
0.000165217
0.000165294
0.000165412
0.000165307
0.000165244
0.000165245
0.000165219
0.000165228
0.000165257
0.000165196
0.00016521
0.000165269
0.000165232
0.000165264
0.000165373
0.000165353
0.000165377
0.000165137
0.000162505
0.000144022
6.40752e-05
1.07791e-06
1.75436e-08
1.70022e-05
0.000104746
0.000149088
0.000159896
0.000161424
0.000161723
0.000161813
0.000162072
0.000162041
0.000162128
0.000162069
0.000162054
0.000162009
0.000161672
0.000161392
0.000161452
0.000161743
0.000161796
0.000161963
0.000161994
0.000161953
0.000161931
0.000161801
0.000161765
0.000161682
0.000161742
0.000161714
0.0001616
0.000161597
0.000161755
0.000161755
0.000161672
0.00016161
0.000161835
0.000161992
0.000161859
0.000161825
0.000161784
0.000161592
0.000161647
0.000161689
0.0001617
0.000161784
0.000161808
0.000161756
0.000161867
0.000161895
0.000162043
0.000162018
0.000161
0.000154737
0.000125923
4.18393e-05
5.48749e-07
9.61036e-09
1.04731e-05
8.48131e-05
0.000138196
0.000154087
0.00015755
0.000158333
0.000158595
0.000158377
0.000158133
0.000158812
0.000159183
0.000159357
0.000159314
0.000158782
0.000158326
0.000158291
0.000158661
0.000158908
0.000159218
0.000159195
0.000159216
0.000159291
0.000158965
0.000158663
0.000158709
0.0001588
0.000158773
0.000158828
0.000158601
0.000158918
0.000159241
0.000158737
0.000158379
0.000158552
0.000158589
0.000158922
0.000159104
0.000158929
0.000158954
0.000159413
0.000159749
0.000159256
0.000158902
0.000158934
0.000159035
0.000159442
0.000158794
0.000159011
0.000159034
0.0001569
0.00014671
0.000109053
2.9063e-05
3.31915e-07
5.96778e-09
7.03445e-06
6.9295e-05
0.00012834
0.000147798
0.000154093
0.000155382
0.00015586
0.000154378
0.00015473
0.000154652
0.000156101
0.000156357
0.000156395
0.000156016
0.00015581
0.000155405
0.000155781
0.000155878
0.000156137
0.000156366
0.000157314
0.00015755
0.000156765
0.000156653
0.000156767
0.000156807
0.000156886
0.000156811
0.000156007
0.000155979
0.000157104
0.000156502
0.000156395
0.000156187
0.00015566
0.000156246
0.000156794
0.000156452
0.00015571
0.00015698
0.00015685
0.000156643
0.000156624
0.000157228
0.000157782
0.000157819
0.000156301
0.000156158
0.000156476
0.000152912
0.000139518
9.5092e-05
2.15102e-05
2.23665e-07
4.11107e-09
5.13261e-06
5.78648e-05
0.000120582
0.000143791
0.000151081
0.000154124
0.00015625
0.000153518
0.000153135
0.000152737
0.000153062
0.000155202
0.000153789
0.000153335
0.000152615
0.000152773
0.000155539
0.000154905
0.000154432
0.000155272
0.000157158
0.000156727
0.000155949
0.000157124
0.000156887
0.000156163
0.000155954
0.000155845
0.000154386
0.000154792
0.000155175
0.000155139
0.000155283
0.000152821
0.000153396
0.000154713
0.00015544
0.000154365
0.000153968
0.000155122
0.000156463
0.00015533
0.000155524
0.000158371
0.000158784
0.000155286
0.000153568
0.000155032
0.000153433
0.000149767
0.000133656
8.41483e-05
1.67985e-05
1.61066e-07
3.06248e-09
3.97911e-06
4.90204e-05
0.000112868
0.000138406
0.000148564
0.000153513
0.000155677
0.000151942
0.000151682
0.000153789
0.0001543
0.000154857
0.000152291
0.000151286
0.000154133
0.00015298
0.000157763
0.000156683
0.000155652
0.0001556
0.000154927
0.000154873
0.000156582
0.00015562
0.000159002
0.000156234
0.000154678
0.000154751
0.000152552
0.000153704
0.000153139
0.000153367
0.000155748
0.00015169
0.000152234
0.000155066
0.000154808
0.000154286
0.000152232
0.000153947
0.000157541
0.000154934
0.000154147
0.000158201
0.000158896
0.000154293
0.000152314
0.000148727
0.00015387
0.000149357
0.000129436
7.58757e-05
1.37814e-05
1.25738e-07
2.39105e-09
3.18151e-06
4.20209e-05
0.000107308
0.000134027
0.000151936
0.000152622
0.000156764
0.00015837
0.000163343
0.000156242
0.000155784
0.000156687
0.000158488
0.000153734
0.000154026
0.000153975
0.000155321
0.00015921
0.000157648
0.000158526
0.000157846
0.000157379
0.000157797
0.000155686
0.000154346
0.000158027
0.000154933
0.000154554
0.000153055
0.000153877
0.000147957
0.000150376
0.000155702
0.000154237
0.000154606
0.00015724
0.00015191
0.000156647
0.000150631
0.000154562
0.000157145
0.000154911
0.000154827
0.000156936
0.000154328
0.000158034
0.000151848
0.00015718
0.000151048
0.000148635
0.000126417
6.87521e-05
1.16634e-05
1.03592e-07
1.96425e-09
2.66721e-06
3.73117e-05
0.000102015
0.000137993
0.000153557
0.00016347
0.000179482
0.00017452
0.000182067
0.000167845
0.000167933
0.000169847
0.000162338
0.000163614
0.000169489
0.00016386
0.000173371
0.000162266
0.000159064
0.000161103
0.000159275
0.00016003
0.000158291
0.00015746
0.000163286
0.000160008
0.000155582
0.000156016
0.00015599
0.000154567
0.000155534
0.000157084
0.00016414
0.000159492
0.000159154
0.000158448
0.000166428
0.000161791
0.000158083
0.00015831
0.000165495
0.000156652
0.00015631
0.00015818
0.000162396
0.000164772
0.00016534
0.000160616
0.000156811
0.000149802
0.000125555
6.26447e-05
9.9603e-06
8.59224e-08
1.62961e-09
2.25009e-06
3.35696e-05
9.70261e-05
0.000143999
0.000164676
0.000186658
0.000187162
0.000190012
0.00019169
0.000199398
0.000185519
0.000190793
0.000207511
0.000181852
0.000183469
0.000181115
0.000185606
0.000180139
0.000172664
0.00017252
0.000183769
0.000183021
0.000172038
0.000169513
0.000172469
0.000184318
0.000174882
0.000185858
0.000169224
0.000169328
0.000185148
0.000185696
0.000181786
0.000172404
0.000172154
0.000194363
0.000185928
0.000179818
0.000171958
0.000172171
0.00017923
0.000190667
0.000166308
0.000180576
0.000181023
0.000170684
0.000175337
0.000176576
0.000165607
0.000148854
0.000117188
5.74294e-05
8.54911e-06
7.45711e-08
1.44458e-09
1.98561e-06
2.97056e-05
9.31113e-05
0.000154087
0.00018659
0.000220583
0.000239105
0.000211957
0.000212752
0.000218877
0.000217703
0.000230143
0.000231165
0.000216847
0.00022258
0.000207959
0.000205053
0.000201448
0.00019454
0.000191608
0.00021134
0.000212701
0.000194174
0.000191548
0.000197641
0.000214065
0.000199638
0.000197942
0.00020593
0.000210406
0.000203475
0.000204087
0.000220593
0.000195602
0.000218931
0.000227213
0.00023041
0.000207698
0.000199496
0.000190247
0.000201235
0.00020888
0.000210965
0.000188768
0.000192535
0.000191368
0.000209577
0.000198307
0.000179752
0.000160188
0.000117869
5.31769e-05
8.68419e-06
7.21344e-08
1.45907e-09
2.04244e-06
3.14816e-05
9.70973e-05
0.000176277
0.000207727
0.000244143
0.000281847
0.000268093
0.000282512
0.000249949
0.000264173
0.000262634
0.000260593
0.000269674
0.000271281
0.00024832
0.000256338
0.00023761
0.000228875
0.000211141
0.000223055
0.000224265
0.00021425
0.000223674
0.000222602
0.000222542
0.000236137
0.000210921
0.000224305
0.000230076
0.000225369
0.000216386
0.000217681
0.000223953
0.000244538
0.000228629
0.000228565
0.000221244
0.000248541
0.000230982
0.000247617
0.000243329
0.000238187
0.000215154
0.00021619
0.000219574
0.000229974
0.000213191
0.000189998
0.000167292
0.000121171
5.20572e-05
8.12814e-06
7.20427e-08
1.51104e-09
2.07167e-06
3.35209e-05
0.000111717
0.000190936
0.000226956
0.000262505
0.000268318
0.00027602
0.000279952
0.000302098
0.000284512
0.000278314
0.000270668
0.000292044
0.00026448
0.000261517
0.000258381
0.000246121
0.000227021
0.000228075
0.000232265
0.000225297
0.000224854
0.000240181
0.000250582
0.000258923
0.000251478
0.000250955
0.000254781
0.000243222
0.000244947
0.000241671
0.000228815
0.000233598
0.000246687
0.000239501
0.000271258
0.000239172
0.000243905
0.000251241
0.00026414
0.000269845
0.000246819
0.000231259
0.000225871
0.000250193
0.000266096
0.000226574
0.000209661
0.000174022
0.000134848
5.45524e-05
8.05396e-06
7.35954e-08
1.62244e-09
2.19997e-06
3.8284e-05
0.00012918
0.000199092
0.000238349
0.000271678
0.000288345
0.000290954
0.00029943
0.00029674
0.000332953
0.000286883
0.000280158
0.000286617
0.000271214
0.000279716
0.000270556
0.000253488
0.00023532
0.000243883
0.000239766
0.000263458
0.000256872
0.000262412
0.000273385
0.000233163
0.00021229
0.000218671
0.000251213
0.000267881
0.000268458
0.000260952
0.000244287
0.000253165
0.000264503
0.000257918
0.000270454
0.000282774
0.000284127
0.000264159
0.000269467
0.000274697
0.000266122
0.000241129
0.000238463
0.000256328
0.000276189
0.000257448
0.000228778
0.00018344
0.000138939
5.95101e-05
8.86903e-06
7.88147e-08
1.77662e-09
2.48487e-06
4.097e-05
0.000135963
0.000209797
0.000270722
0.00028012
0.000295891
0.000304051
0.000312373
0.000322969
0.000319943
0.000304906
0.000296509
0.00030689
0.000282383
0.000297438
0.000290704
0.000256433
0.000242215
0.000259215
0.000272365
0.000255204
0.00027455
0.000244847
0.000171917
0.000104581
5.42562e-05
5.45243e-05
0.000138338
0.000226067
0.000317331
0.000269888
0.000273783
0.000271209
0.000259803
0.000262358
0.000277149
0.000281403
0.000277745
0.000283058
0.000296925
0.000282916
0.000269653
0.000256414
0.000261539
0.000266259
0.000280429
0.000266346
0.000237574
0.000200383
0.000144707
6.33406e-05
1.02177e-05
8.64032e-08
1.62002e-09
2.6833e-06
4.54803e-05
0.000134215
0.000236191
0.000280044
0.000306733
0.000303972
0.00031427
0.000316745
0.000323675
0.000327
0.000324647
0.000318665
0.00032361
0.000295978
0.000296044
0.000294158
0.000261711
0.000272756
0.000299675
0.000307542
0.000310651
0.000274062
9.2796e-05
5.13687e-06
3.74742e-09
3.62963e-08
3.72192e-05
0.000126724
0.000330598
0.000304552
0.000298154
0.000274391
0.000280749
0.000283758
0.000287728
0.000285418
0.00029538
0.000302741
0.000297542
0.000282209
0.000269456
0.000269569
0.000276956
0.000287522
0.000270478
0.000251152
0.000211201
0.00014862
7.46217e-05
1.1199e-05
9.41815e-08
4.34789e-10
1.81631e-06
3.94511e-05
0.000132921
0.000234702
0.000288859
0.000305865
0.000315868
0.000319932
0.00032139
0.000322382
0.000326213
0.000324753
0.000314693
0.000306197
0.000298727
0.000286705
0.000278253
0.000269515
0.000266249
0.00027982
0.000313069
0.000256568
7.77079e-05
4.87268e-06
7.55528e-10
2.23705e-05
0.000198449
0.000300882
0.000288304
0.000272083
0.000269955
0.000284337
0.000291836
0.000291872
0.000294567
0.000297266
0.000293835
0.000282272
0.000271285
0.000270081
0.000280941
0.000288552
0.000269972
0.000249499
0.000211618
0.000156236
7.94357e-05
1.14114e-05
9.19382e-08
8.83823e-10
3.25077e-06
5.37218e-05
0.000171659
0.000261584
0.000309311
0.000340074
0.000334419
0.00034616
0.00034568
0.000340687
0.000331656
0.000332282
0.000336726
0.000318269
0.000309218
0.000312428
0.000306416
0.000288708
0.0002756
0.000274372
0.0002801
0.000172426
3.01724e-05
4.97445e-07
5.30534e-06
0.000102458
0.000258684
0.000283397
0.0002753
0.000270299
0.000291291
0.000306414
0.000304704
0.000297261
0.000304567
0.000319075
0.000299542
0.000288941
0.000285983
0.000294235
0.0003005
0.000314382
0.000280457
0.000239957
0.000188065
9.69265e-05
1.75697e-05
1.54827e-07
2.34035e-09
3.76639e-06
6.13436e-05
0.000182409
0.000270893
0.00033322
0.000341848
0.000340777
0.000371163
0.000333987
0.0003507
0.000329696
0.000326325
0.000351898
0.000312038
0.000300069
0.000307531
0.00029168
0.000286121
0.000272091
0.00028577
0.00024147
0.000135579
2.08329e-05
7.7662e-07
2.26782e-09
2.54746e-08
4.83734e-06
6.96187e-05
0.000196797
0.000265692
0.000269436
0.000265241
0.00030327
0.000300163
0.000303339
0.000290042
0.000296397
0.000312032
0.000339077
0.00029442
0.000314047
0.000296121
0.000298286
0.000297267
0.000298039
0.000256279
0.000189124
9.64889e-05
1.59958e-05
1.42801e-07
2.88305e-09
3.9317e-06
6.13971e-05
0.000181325
0.000274643
0.000317205
0.00033358
0.000340379
0.000346899
0.000339694
0.000353904
0.000374935
0.000338643
0.000331893
0.000310102
0.000299028
0.000322281
0.000295913
0.000283673
0.000275216
0.000281984
0.000226266
0.000125058
2.20515e-05
2.66431e-06
2.32568e-06
3.55466e-06
4.96108e-06
4.57505e-06
5.21491e-06
2.06538e-06
6.99933e-06
5.93592e-05
0.000188592
0.000262286
0.000291326
0.000271272
0.00029152
0.000302884
0.000301469
0.000289105
0.000314577
0.000321899
0.000326307
0.000291127
0.000305372
0.000304976
0.000303197
0.000299379
0.000304429
0.000277881
0.000198959
9.88091e-05
1.61797e-05
1.43963e-07
2.99698e-09
4.02936e-06
6.49105e-05
0.000188527
0.000278266
0.000317556
0.000360948
0.000348498
0.00034743
0.000359866
0.000373379
0.000364499
0.000343743
0.000343649
0.000319266
0.000296873
0.000302384
0.000292427
0.000285691
0.000287143
0.000277535
0.000221307
0.000118917
2.62986e-05
8.53407e-06
4.44848e-05
0.000157117
0.000236186
0.000228292
0.00013284
2.49045e-05
1.17665e-05
5.6856e-05
0.000173339
0.000265718
0.000285848
0.000279666
0.000301625
0.000306503
0.000300823
0.000319414
0.000323311
0.000335306
0.000313206
0.000303042
0.000325754
0.0003368
0.000309271
0.00030222
0.000305013
0.000270866
0.00020801
0.000101363
1.61932e-05
1.43531e-07
3.02226e-09
4.09451e-06
7.05172e-05
0.000191863
0.000301734
0.000347006
0.000359587
0.00036352
0.000383935
0.000357154
0.000354706
0.000352515
0.000338573
0.00034536
0.000319112
0.000297052
0.000298158
0.000287923
0.000288108
0.000292006
0.000264649
0.000215398
0.000112845
4.09515e-05
2.16634e-05
0.000106022
0.000295617
0.00037851
0.00036397
0.000236428
7.31353e-05
2.52803e-05
6.02223e-05
0.000159523
0.000245651
0.000288007
0.000300696
0.000310523
0.000307386
0.000300263
0.000319649
0.000329214
0.000335123
0.000308315
0.000311366
0.000319756
0.000335758
0.000318387
0.000306909
0.000295105
0.000283231
0.000215297
0.000104754
1.83271e-05
1.48707e-07
2.98795e-09
4.02957e-06
6.64295e-05
0.000202851
0.000304195
0.00035158
0.000362521
0.000354606
0.000374149
0.000356564
0.000371455
0.00034584
0.000335165
0.000328926
0.000322814
0.000305334
0.000312871
0.000286951
0.000287156
0.000282629
0.000262949
0.00021877
0.000119366
5.81702e-05
4.39013e-05
0.000142081
0.000360271
0.000459321
0.000435267
0.000311262
0.000111133
5.04831e-05
7.79533e-05
0.000164156
0.000255678
0.000280515
0.000305434
0.000301322
0.000313783
0.000302815
0.000318169
0.000316642
0.000334473
0.000307538
0.000309578
0.000332762
0.000329007
0.000340612
0.000313487
0.000311362
0.000267048
0.000220785
0.000107618
1.72027e-05
1.46763e-07
2.97498e-09
4.13259e-06
6.90592e-05
0.000209516
0.000297613
0.000336335
0.000350253
0.000361526
0.000375281
0.000354306
0.00037125
0.000350655
0.00033659
0.000335677
0.000315921
0.000296393
0.000306582
0.000286726
0.000281092
0.000285461
0.000265591
0.000220871
0.000132758
8.35449e-05
7.57268e-05
0.000178453
0.000433865
0.000549102
0.000513804
0.000357962
0.000136751
8.06976e-05
0.000113069
0.000178392
0.000251739
0.0002803
0.000287685
0.000295523
0.00032199
0.000308242
0.000311342
0.000313082
0.000334534
0.000305828
0.000306746
0.000328568
0.000319876
0.000325677
0.000331705
0.000298018
0.000261353
0.000216245
0.000108718
1.68409e-05
1.40879e-07
2.87932e-09
3.95175e-06
6.35844e-05
0.000190108
0.000274052
0.000314678
0.000324151
0.000333682
0.000344632
0.000340047
0.00034067
0.000325439
0.000319138
0.00030952
0.000299967
0.000292782
0.000287994
0.000291376
0.000278143
0.000292209
0.00029383
0.000222453
0.000162161
0.000110356
0.000121932
0.000228496
0.000497795
0.000628535
0.000583209
0.000388987
0.000165737
0.000116842
0.000142449
0.000201079
0.000255195
0.000272775
0.000280936
0.000294094
0.000297969
0.000311666
0.00029144
0.000307399
0.000316083
0.000311053
0.000308447
0.000317113
0.000311288
0.000323592
0.000313614
0.000290831
0.000272598
0.000230446
0.000116125
1.73365e-05
1.39603e-07
2.86925e-09
3.91812e-06
6.36528e-05
0.000202097
0.000281849
0.000283336
0.000302401
0.000320278
0.000325346
0.000321912
0.000313565
0.000312205
0.000311727
0.000320074
0.000289538
0.000290412
0.000275803
0.000301568
0.00027845
0.000278454
0.000265349
0.000226893
0.000177997
0.000145739
0.00015856
0.00028148
0.000567827
0.000702989
0.000645416
0.000411747
0.000196593
0.000148958
0.000166021
0.000216874
0.000256481
0.000258131
0.000274119
0.00028311
0.00029487
0.000275977
0.000287939
0.000296636
0.000311521
0.000315345
0.000317123
0.000304233
0.000306739
0.000306789
0.000314191
0.000280861
0.000265886
0.000221667
0.000114082
1.61955e-05
1.30421e-07
2.90386e-09
4.00237e-06
6.50994e-05
0.000198145
0.000277411
0.000294825
0.00031558
0.000311419
0.000328158
0.000313495
0.000323242
0.000296827
0.000292613
0.000302416
0.000281317
0.000286616
0.000293592
0.000287534
0.00028143
0.00028077
0.00027326
0.000237024
0.000188868
0.000162055
0.000193391
0.000335045
0.000634542
0.000762867
0.000704732
0.000439101
0.000221652
0.000172717
0.000179538
0.000228846
0.000247732
0.00027959
0.000286228
0.000282434
0.000303635
0.000276184
0.000275005
0.000289906
0.000301322
0.000305534
0.000331581
0.000319862
0.000323736
0.000297179
0.000296315
0.000276692
0.000252976
0.000203271
0.000106042
1.52578e-05
1.21993e-07
2.86372e-09
4.10679e-06
6.87474e-05
0.000200812
0.000285075
0.000303129
0.000318499
0.000335814
0.000335572
0.000328418
0.000311569
0.000298497
0.000305425
0.000291156
0.000300935
0.000297505
0.000312745
0.000307859
0.000299677
0.000281511
0.000272372
0.000248558
0.000211829
0.000194424
0.000216757
0.000378623
0.000691886
0.000802564
0.000739241
0.000458532
0.000242737
0.000191597
0.000201491
0.000229149
0.000273894
0.000284248
0.000294417
0.000301565
0.000316801
0.000287982
0.000287087
0.000295354
0.000311574
0.000319585
0.000350451
0.000354871
0.000325693
0.000317328
0.00032205
0.000289737
0.000263029
0.00021792
0.000110063
1.48137e-05
1.15376e-07
2.64697e-09
3.81857e-06
6.35471e-05
0.000195848
0.000287549
0.000307567
0.000313815
0.000337708
0.000333156
0.000334809
0.000328913
0.000319711
0.000306606
0.000314547
0.000309383
0.000298993
0.000305936
0.000299997
0.000290324
0.000282525
0.000282325
0.000271443
0.000245464
0.000216223
0.00024121
0.000408463
0.000722072
0.000820221
0.000751819
0.000469051
0.000262272
0.000215689
0.00022087
0.000251616
0.000279235
0.000296904
0.000310985
0.000306992
0.000308503
0.000302914
0.000285317
0.000293306
0.000318219
0.000325505
0.000339981
0.000369142
0.000370388
0.000352019
0.000318456
0.000289523
0.000264557
0.000222719
0.000102905
1.48158e-05
1.11175e-07
2.38891e-09
3.46431e-06
5.77127e-05
0.000186318
0.000280854
0.000306103
0.000323153
0.00032331
0.000323235
0.000321602
0.000323658
0.000318681
0.000309769
0.000309046
0.000308181
0.000292289
0.000291842
0.000296886
0.000288499
0.000285342
0.000286602
0.000266202
0.000260943
0.000237635
0.000263831
0.000436695
0.000719822
0.000804615
0.00073567
0.0004769
0.000277289
0.000226337
0.000239164
0.000268168
0.000295594
0.000289888
0.000295572
0.000306527
0.000288521
0.000296637
0.000294513
0.000304413
0.000312021
0.000325421
0.000349034
0.000363579
0.000362707
0.000331137
0.000307141
0.000302215
0.000276795
0.000224769
0.00010774
1.37923e-05
1.02655e-07
2.14341e-09
3.07986e-06
5.45605e-05
0.000174891
0.00026609
0.000296181
0.000311887
0.000314701
0.000329438
0.000336283
0.000319912
0.000332949
0.000332597
0.000308171
0.000294381
0.000286092
0.000280197
0.000291743
0.000292895
0.000294309
0.000289481
0.000268574
0.000263736
0.000247998
0.000280904
0.000452167
0.000686275
0.000760001
0.000691896
0.000478514
0.000298522
0.000242999
0.000244298
0.000274383
0.000283991
0.00029066
0.000285174
0.000299315
0.000289957
0.000284181
0.000299247
0.000299848
0.000311893
0.00033211
0.000331916
0.000350493
0.00034518
0.000330128
0.000316152
0.000297127
0.000273632
0.000210105
0.000104476
1.32653e-05
9.89623e-08
2.06896e-09
2.93095e-06
4.97499e-05
0.000163182
0.000245062
0.000281038
0.000305085
0.000317875
0.000318757
0.000326694
0.000320902
0.00032597
0.000329085
0.000319183
0.000289868
0.000282934
0.000279579
0.000282656
0.000284379
0.000281776
0.000283426
0.000269012
0.000264468
0.000252919
0.000312922
0.000455892
0.000637066
0.00068557
0.000636252
0.000475322
0.000307505
0.000248299
0.000249821
0.000266803
0.00028924
0.000280757
0.000286208
0.000285293
0.000285162
0.000283251
0.000289961
0.000305926
0.000305076
0.000331139
0.000324443
0.000335658
0.000326511
0.000313679
0.000316938
0.000285484
0.000263254
0.000206905
0.000101059
1.33602e-05
9.55256e-08
2.0627e-09
2.92463e-06
5.13943e-05
0.000157468
0.000238812
0.00027788
0.000294329
0.000309678
0.000317574
0.000336212
0.000323729
0.000345499
0.000332956
0.000319803
0.000296465
0.000283395
0.000283502
0.000288687
0.000282473
0.000283503
0.000276765
0.000268905
0.000258593
0.000263043
0.000317613
0.000456086
0.000587817
0.000605653
0.000588801
0.000469819
0.000314728
0.000257819
0.000264698
0.000268986
0.000281211
0.000278662
0.000278883
0.000301127
0.000282342
0.000281247
0.000288671
0.000295177
0.000311678
0.000328939
0.000325659
0.000319091
0.000328295
0.000324355
0.000304292
0.000284878
0.000259749
0.000204341
9.35139e-05
1.24375e-05
9.21786e-08
2.00733e-09
2.79262e-06
4.72659e-05
0.000149525
0.000233042
0.00027801
0.000294659
0.0003076
0.000324511
0.000332718
0.000328732
0.000343603
0.000326562
0.000313507
0.000306495
0.000294413
0.000296095
0.000312628
0.000285626
0.000285171
0.000289126
0.000270905
0.000261158
0.000274422
0.000344067
0.000447589
0.000543896
0.000546619
0.00055624
0.000464528
0.000317999
0.000269453
0.000279267
0.000273068
0.000279583
0.000283247
0.000282307
0.000315468
0.000286
0.000285313
0.000291956
0.000298143
0.000307375
0.000324872
0.00032707
0.0003186
0.000331111
0.000322953
0.000300532
0.000287901
0.000263821
0.000213564
9.3375e-05
1.22399e-05
8.94172e-08
2.01531e-09
2.83722e-06
4.66944e-05
0.000148469
0.000236961
0.000283742
0.000299163
0.000327299
0.000367445
0.000329912
0.000343655
0.000339985
0.000329386
0.000317153
0.000313203
0.000301001
0.000295485
0.000297606
0.000292995
0.000297189
0.000299815
0.000272584
0.000268464
0.000297573
0.000343082
0.000444063
0.000508358
0.000499306
0.000516931
0.00046345
0.000353361
0.000283715
0.000283113
0.00028028
0.000282358
0.000318851
0.000305883
0.000303255
0.000320763
0.000288854
0.000292018
0.000319885
0.000306035
0.000308779
0.000311525
0.000328364
0.000322241
0.000308928
0.000299644
0.000290468
0.000285213
0.00021033
9.21554e-05
1.19423e-05
8.78439e-08
2.03248e-09
2.83779e-06
4.71488e-05
0.000153923
0.000241569
0.00030609
0.000309232
0.000326591
0.000360466
0.000334673
0.000346218
0.000335057
0.000334214
0.000327237
0.000318128
0.000308043
0.000310763
0.000309027
0.000308473
0.000322967
0.000305895
0.000279699
0.000275646
0.000290609
0.000338842
0.000430815
0.000476862
0.00046417
0.000485723
0.000454445
0.000351
0.000300296
0.000304139
0.0002996
0.000286778
0.000302106
0.000296079
0.00030468
0.000309445
0.000300705
0.000298822
0.000306969
0.00030505
0.000307575
0.000307324
0.00032167
0.000320833
0.000331525
0.00031812
0.000291478
0.00027823
0.000209109
9.22674e-05
1.17812e-05
8.72751e-08
2.06199e-09
2.89128e-06
4.85266e-05
0.00015941
0.000269352
0.000296605
0.000318182
0.000357143
0.000347572
0.000336852
0.000353338
0.000336145
0.000340163
0.000335392
0.000326149
0.000316343
0.000311408
0.000323769
0.000328174
0.000328638
0.000310602
0.000291862
0.000285145
0.000296193
0.000353197
0.000420809
0.000454013
0.000434348
0.000459633
0.000442978
0.000363041
0.000306519
0.000306788
0.000288257
0.000294044
0.000301843
0.000299412
0.0003073
0.000317224
0.000334358
0.000326758
0.000309238
0.000331073
0.000322234
0.000319455
0.000311051
0.000309605
0.000329963
0.00033405
0.000295897
0.000280139
0.000211674
9.43524e-05
1.19397e-05
8.68614e-08
2.12983e-09
2.95748e-06
5.02691e-05
0.000163723
0.00027134
0.000302868
0.000361494
0.000352617
0.00034749
0.000366055
0.000342907
0.000335474
0.00034994
0.000379318
0.000340202
0.000331389
0.000337293
0.000326758
0.00033121
0.000327057
0.000319467
0.000302133
0.000301151
0.000311133
0.000355725
0.000408237
0.000433744
0.0004164
0.000436113
0.000422152
0.000356366
0.000318413
0.000296266
0.00028979
0.000305816
0.000337669
0.000338892
0.000325277
0.000329753
0.000337248
0.000322762
0.000335253
0.00033576
0.000329289
0.000314654
0.000306059
0.000304482
0.000324447
0.000319297
0.000307015
0.000276714
0.000217497
0.000101141
1.35082e-05
9.31151e-08
2.23595e-09
3.13351e-06
5.34395e-05
0.000173068
0.000299313
0.000315649
0.000360251
0.000365352
0.000353439
0.000369907
0.000342077
0.000343017
0.000348458
0.000377631
0.000345561
0.000333192
0.000337201
0.000351557
0.000343034
0.000339071
0.000342217
0.000318798
0.000335784
0.000322184
0.000350042
0.000392322
0.000410894
0.000396933
0.000408451
0.000404032
0.00036008
0.000314045
0.000294053
0.000298455
0.000313475
0.000348042
0.000344397
0.000355489
0.000341071
0.000336362
0.000326784
0.000337218
0.000336184
0.000327513
0.00033453
0.000312655
0.000309966
0.000319663
0.000328678
0.000309171
0.000291571
0.000248901
0.000109202
1.42556e-05
9.97171e-08
2.36963e-09
3.37613e-06
5.84891e-05
0.00018051
0.000286344
0.00031679
0.000346776
0.000373712
0.000371181
0.000368202
0.000342109
0.000347674
0.000350319
0.000368488
0.000365243
0.000338089
0.000331074
0.000337283
0.00033166
0.000331964
0.000351168
0.000328351
0.000323385
0.000328118
0.000347653
0.0003813
0.00038878
0.000379151
0.000393354
0.00040545
0.000347391
0.000308073
0.000299834
0.000306112
0.000354777
0.000359596
0.000352688
0.000353817
0.000343204
0.000339106
0.000340231
0.000331412
0.000335716
0.000331873
0.000322834
0.000336947
0.000314792
0.000322727
0.000321802
0.000306521
0.000291265
0.000243609
0.000111572
1.40574e-05
1.0191e-07
2.41909e-09
3.51283e-06
6.03322e-05
0.0001884
0.000306462
0.000340962
0.000373441
0.000398035
0.00041481
0.000369922
0.000352621
0.00034909
0.000354802
0.000362558
0.000381346
0.000349858
0.00033245
0.000347288
0.000324673
0.000338687
0.000345798
0.000324875
0.000320456
0.000329714
0.000350976
0.000387333
0.000383243
0.00035765
0.00037775
0.00038842
0.000339112
0.000307814
0.000307445
0.000312922
0.000347358
0.000346842
0.000337535
0.000349826
0.000354394
0.000359963
0.000357454
0.000343345
0.000360901
0.000331941
0.000330123
0.000339985
0.000327323
0.000337442
0.00032097
0.000305345
0.000287946
0.000236874
0.000108309
1.39231e-05
1.03151e-07
2.41357e-09
3.45815e-06
5.99096e-05
0.000192566
0.000303012
0.000341988
0.000356765
0.000377941
0.000390505
0.000372167
0.00036007
0.000364681
0.000378283
0.000363636
0.000370828
0.000366671
0.000340698
0.000339018
0.000324748
0.000332944
0.000335868
0.000337998
0.000348258
0.000334346
0.000366467
0.000381476
0.000364504
0.000357507
0.000368612
0.000377798
0.000337617
0.000322374
0.00031252
0.000322259
0.000338699
0.000341043
0.000335952
0.000345944
0.000359821
0.000361931
0.000346529
0.000346792
0.000343157
0.000333399
0.000333848
0.000334574
0.000342958
0.000322279
0.000318729
0.000330079
0.000305333
0.000245538
0.000109431
1.43868e-05
1.07347e-07
2.44792e-09
3.54394e-06
6.29932e-05
0.000206188
0.000316235
0.000371735
0.000373248
0.000385433
0.000397266
0.000372834
0.000364911
0.000366866
0.000376773
0.000376854
0.000368535
0.000360733
0.000345127
0.000338519
0.000343558
0.000334411
0.000340712
0.000358297
0.00035419
0.000339045
0.000353692
0.00036625
0.000362634
0.000339468
0.000361259
0.000363637
0.000338709
0.000324628
0.000314839
0.000318107
0.000328619
0.00034081
0.000340033
0.000344086
0.000371062
0.000348282
0.000363043
0.000344971
0.000343393
0.000334055
0.000333908
0.000329191
0.000332826
0.000325126
0.000316289
0.000327449
0.00029444
0.000238873
0.000116555
1.45432e-05
1.10511e-07
2.45429e-09
3.58642e-06
6.44127e-05
0.000197043
0.000313981