/*--------------------------------*- C++ -*----------------------------------*\
  =========                 |
  \\      /  F ield         | OpenFOAM: The Open Source CFD Toolbox
   \\    /   O peration     | Website:  https://openfoam.org
    \\  /    A nd           | Version:  7
     \\/     M anipulation  |
\*---------------------------------------------------------------------------*/
FoamFile
{
    version     2.0;
    format      ascii;
    class       volScalarField;
    location    "15";
    object      p;
}
// * * * * * * * * * * * * * * * * * * * * * * * * * * * * * * * * * * * * * //

dimensions      [0 2 -2 0 0 0 0];

internalField   nonuniform List<scalar> 
17475
(
0.722971
0.41061
0.322618
0.284567
0.262272
0.247494
0.237074
0.229497
0.223919
0.219822
0.216867
0.214818
0.2135
0.212781
0.212552
0.212722
0.213212
0.213949
0.214869
0.215908
0.217008
0.218115
0.219177
0.220149
0.220989
0.221667
0.222154
0.222433
0.222495
0.222344
0.22199
0.221454
0.220767
0.219965
0.219092
0.218196
0.217333
0.216561
0.215942
0.215543
0.215439
0.21571
0.216448
0.217762
0.219785
0.222687
0.226696
0.232131
0.239456
0.249379
0.263031
0.282274
0.309973
0.352209
0.374947
0.290243
0.311104
0.291668
0.27163
0.255469
0.243357
0.234317
0.227538
0.222459
0.218696
0.215975
0.214098
0.212914
0.212303
0.212164
0.212414
0.212975
0.213779
0.21476
0.215858
0.217014
0.218172
0.219281
0.220295
0.221173
0.221876
0.22238
0.222667
0.222727
0.222562
0.222186
0.22162
0.220894
0.220047
0.219123
0.218172
0.217249
0.216413
0.215725
0.215253
0.215068
0.215247
0.215879
0.217062
0.21892
0.221603
0.22531
0.230308
0.236975
0.245859
0.257791
0.274085
0.296914
0.332284
0.344152
0.247832
0.247128
0.247678
0.244045
0.238049
0.231832
0.226278
0.22166
0.217991
0.215193
0.213165
0.211809
0.211033
0.210755
0.210901
0.211402
0.212192
0.21321
0.214394
0.215684
0.217022
0.21835
0.219614
0.220767
0.221758
0.222549
0.223109
0.223421
0.223475
0.223272
0.222826
0.222161
0.221312
0.22032
0.219233
0.218104
0.21699
0.215949
0.215044
0.214338
0.213897
0.213788
0.214084
0.214862
0.21621
0.218224
0.221017
0.224716
0.229453
0.235349
0.242429
0.250393
0.257953
0.26461
0.253192
0.21016
0.216359
0.221466
0.222322
0.220931
0.218626
0.216064
0.213646
0.211589
0.209989
0.208875
0.208238
0.208048
0.208265
0.208844
0.209738
0.210895
0.21226
0.213777
0.215387
0.217031
0.218648
0.220181
0.221566
0.222752
0.223694
0.224355
0.224712
0.224755
0.224486
0.223922
0.22309
0.222032
0.220796
0.219435
0.21801
0.21658
0.215206
0.21395
0.212875
0.212035
0.211486
0.211281
0.211468
0.212094
0.213194
0.21479
0.216872
0.219369
0.222091
0.224628
0.226144
0.224873
0.219685
0.205184
0.189799
0.196286
0.202542
0.205343
0.206162
0.206046
0.205465
0.20474
0.204084
0.203634
0.203467
0.203624
0.204116
0.204935
0.206063
0.207468
0.209113
0.210953
0.212935
0.215001
0.217087
0.21913
0.221053
0.222785
0.224263
0.225432
0.226244
0.226671
0.226697
0.226327
0.225582
0.224499
0.223128
0.22153
0.21977
0.217916
0.216038
0.214196
0.212464
0.210893
0.209534
0.208428
0.20761
0.207103
0.206919
0.207048
0.207455
0.208057
0.208706
0.209147
0.208963
0.207463
0.203329
0.195868
0.185932
0.176202
0.181073
0.186869
0.190625
0.192809
0.194129
0.194933
0.195484
0.19597
0.196527
0.197248
0.198193
0.199397
0.200875
0.202625
0.204635
0.206877
0.209313
0.211894
0.21456
0.217247
0.219865
0.222325
0.224544
0.226437
0.227929
0.228958
0.229483
0.229482
0.228964
0.227958
0.226514
0.2247
0.222595
0.220283
0.21785
0.215372
0.212925
0.210588
0.208407
0.206427
0.20468
0.203186
0.201948
0.200954
0.20017
0.199532
0.198939
0.198238
0.197202
0.195526
0.19276
0.187994
0.181033
0.174595
0.16517
0.168553
0.173437
0.177583
0.18061
0.182894
0.184683
0.18619
0.187578
0.188974
0.190473
0.192145
0.194038
0.196184
0.198597
0.201275
0.204201
0.207347
0.210662
0.214093
0.217545
0.220917
0.224102
0.226985
0.229453
0.2314
0.232733
0.233396
0.233357
0.232625
0.231249
0.229297
0.22687
0.224076
0.221029
0.217837
0.214592
0.2114
0.208334
0.205443
0.202768
0.200331
0.19814
0.196187
0.194442
0.192857
0.191362
0.189852
0.188192
0.186211
0.183704
0.180406
0.17572
0.169792
0.165379
0.155424
0.157819
0.16183
0.165991
0.16946
0.172327
0.174767
0.17695
0.179017
0.18108
0.183232
0.185546
0.188078
0.190871
0.193955
0.197341
0.201028
0.204992
0.209195
0.213556
0.217978
0.222335
0.226487
0.230278
0.233545
0.236132
0.237901
0.23876
0.238665
0.237628
0.235723
0.233059
0.229787
0.226062
0.222045
0.217876
0.213676
0.209583
0.205666
0.201977
0.198551
0.195402
0.192526
0.189902
0.187491
0.185234
0.183057
0.180868
0.178551
0.175976
0.173003
0.169498
0.165117
0.160124
0.156828
0.146506
0.148288
0.151584
0.155538
0.159146
0.162296
0.165108
0.167722
0.170257
0.172812
0.175475
0.178322
0.181422
0.184825
0.188575
0.192695
0.197197
0.202096
0.207327
0.212817
0.218467
0.224114
0.229568
0.234614
0.239011
0.242522
0.244926
0.246077
0.245898
0.244415
0.24174
0.238057
0.233604
0.228613
0.223309
0.217877
0.212506
0.207341
0.202448
0.197881
0.193667
0.189806
0.186279
0.18305
0.18007
0.177274
0.174585
0.17192
0.169181
0.166255
0.163051
0.159501
0.155524
0.151538
0.149072
0.13812
0.13952
0.142266
0.145896
0.14942
0.152615
0.155571
0.158407
0.161216
0.164092
0.167118
0.170372
0.173929
0.177857
0.182221
0.187061
0.192449
0.198363
0.204776
0.211625
0.218807
0.226151
0.233379
0.24019
0.246227
0.251111
0.254476
0.25607
0.255763
0.253599
0.249775
0.244594
0.238453
0.23171
0.224682
0.217634
0.210838
0.204407
0.198419
0.192915
0.187902
0.183356
0.179241
0.175499
0.172066
0.168872
0.165831
0.162867
0.159891
0.156817
0.15356
0.150092
0.146453
0.143164
0.141289
0.130008
0.131162
0.133489
0.136738
0.140027
0.143095
0.146013
0.148884
0.151789
0.154812
0.158035
0.161543
0.165423
0.16976
0.174639
0.180148
0.186371
0.193344
0.201072
0.209523
0.218604
0.228151
0.23782
0.24716
0.255638
0.262637
0.267514
0.269816
0.269299
0.266052
0.260426
0.252981
0.244369
0.235165
0.225815
0.216746
0.20822
0.200341
0.193171
0.186716
0.180942
0.175791
0.17119
0.167053
0.163306
0.159864
0.156653
0.153584
0.150572
0.147529
0.14437
0.141074
0.137779
0.13506
0.133582
0.121921
0.12289
0.124877
0.127734
0.130701
0.133526
0.136268
0.139018
0.141851
0.144846
0.148085
0.151664
0.155678
0.160239
0.165451
0.171487
0.178432
0.186398
0.195486
0.205727
0.217085
0.22943
0.242447
0.255475
0.267693
0.278081
0.285481
0.288969
0.288092
0.283001
0.274417
0.263418
0.251119
0.238407
0.226004
0.214448
0.20391
0.194466
0.186115
0.178784
0.172365
0.166754
0.161828
0.157495
0.153643
0.150163
0.146961
0.143947
0.141041
0.138161
0.135222
0.132192
0.129251
0.12697
0.125768
0.113712
0.114516
0.116183
0.118627
0.121219
0.123724
0.126186
0.128684
0.131289
0.134076
0.137134
0.14056
0.144466
0.148988
0.154277
0.160528
0.167915
0.176641
0.186924
0.198976
0.212889
0.228654
0.2461
0.264521
0.282632
0.298723
0.310574
0.316219
0.314664
0.306239
0.292526
0.275719
0.257804
0.24019
0.223936
0.209441
0.196752
0.185807
0.176439
0.168449
0.161653
0.155883
0.150945
0.14668
0.142941
0.139611
0.136592
0.133791
0.131131
0.128532
0.125909
0.123219
0.120649
0.118729
0.117754
0.105332
0.105963
0.107299
0.109306
0.111484
0.113606
0.115694
0.117818
0.120041
0.122441
0.125098
0.128114
0.131611
0.135728
0.140699
0.146705
0.154011
0.162953
0.173916
0.187325
0.203662
0.223211
0.246136
0.272186
0.299734
0.32585
0.346169
0.356065
0.353119
0.338173
0.31499
0.288413
0.26197
0.237923
0.217169
0.199644
0.185055
0.173014
0.163132
0.155058
0.148421
0.142914
0.138308
0.134408
0.131042
0.128097
0.125458
0.123026
0.120744
0.118532
0.11631
0.114033
0.11187
0.110269
0.109443
0.0967826
0.097266
0.0982608
0.0997975
0.101505
0.103176
0.104807
0.106446
0.108146
0.109973
0.112001
0.114319
0.117047
0.120349
0.124437
0.129533
0.135957
0.144131
0.154634
0.168196
0.185724
0.208324
0.23705
0.272675
0.314831
0.35927
0.39712
0.416396
0.410266
0.381107
0.339358
0.29631
0.258005
0.226631
0.201614
0.181921
0.166567
0.154664
0.145378
0.138051
0.132242
0.127553
0.123746
0.120601
0.117935
0.115628
0.113574
0.111687
0.10991
0.108179
0.106432
0.104635
0.102938
0.101719
0.101085
0.0881165
0.088461
0.0891248
0.0901801
0.0913772
0.0925396
0.0936331
0.0946815
0.0957221
0.0968028
0.0979748
0.0993096
0.100906
0.102917
0.105498
0.108867
0.113325
0.119311
0.127459
0.138699
0.1544
0.176526
0.207965
0.252024
0.312899
0.390273
0.467364
0.509627
0.495565
0.432432
0.352864
0.284436
0.233757
0.197277
0.171186
0.152627
0.139299
0.129593
0.122419
0.117066
0.113008
0.109878
0.107409
0.105396
0.103745
0.102323
0.101046
0.0998439
0.0986779
0.0975194
0.0963152
0.095053
0.0938621
0.0930188
0.0925686
0.0794397
0.0796423
0.0799759
0.0805513
0.0812274
0.0818434
0.0823383
0.0827134
0.082984
0.0831769
0.0833123
0.0834272
0.0835723
0.0838384
0.0842953
0.0850892
0.0863823
0.0884501
0.0917848
0.0970708
0.105435
0.119124
0.1419
0.180106
0.246993
0.368621
0.535496
0.640712
0.60477
0.454011
0.303629
0.215508
0.167041
0.137811
0.120019
0.10903
0.102014
0.0973848
0.0943985
0.0924271
0.0910542
0.0901615
0.089547
0.0890814
0.0887222
0.0883939
0.088056
0.0876777
0.0872401
0.0867219
0.0861073
0.0854052
0.0847278
0.0842752
0.0840048
0.0704726
0.0704991
0.0706114
0.0709021
0.0711747
0.0712539
0.0711009
0.0707285
0.0701456
0.0693501
0.0683267
0.0670699
0.0655781
0.0638216
0.0617437
0.0593391
0.0565556
0.0533052
0.0495021
0.0449448
0.0393839
0.0327225
0.0245151
0.013107
-0.00797744
0.0902886
0.350665
0.230092
0.0614778
0.0184237
0.0337769
0.0411108
0.0473246
0.0523825
0.0566047
0.060003
0.0629045
0.0653804
0.0674946
0.0693219
0.0708789
0.0722009
0.0733099
0.0742122
0.07492
0.0754419
0.0757862
0.0759566
0.0759544
0.0757914
0.0755771
0.0755096
0.0755042
0.06
0.0601585
0.0608253
0.0614955
0.0616242
0.061153
0.0602767
0.0590966
0.0576503
0.0558764
0.0537108
0.0510504
0.0478403
0.0439819
0.0393237
0.0336621
0.0266796
0.0179065
0.00652213
-0.00881871
-0.0305848
-0.0634584
-0.117006
-0.217652
-0.36148
-0.460681
-0.27603
-0.138091
-0.0707359
-0.0315595
-0.00678813
0.0100046
0.0220729
0.0311665
0.038252
0.0439271
0.0485467
0.0523328
0.0554635
0.0580953
0.0602734
0.0620544
0.0635081
0.0646532
0.0655438
0.066181
0.0664735
0.0663572
0.0660757
0.0658711
0.0562749
0.0558369
0.0545567
0.0524347
0.0504788
0.0489333
0.0474879
0.045817
0.0437123
0.0411245
0.037938
0.0340325
0.0292643
0.0235177
0.0165918
0.00815926
-0.00223876
-0.0152682
-0.0318836
-0.0536748
-0.0832327
-0.124858
-0.18584
-0.278368
-0.382876
-0.306756
-0.202716
-0.132678
-0.0859866
-0.0536018
-0.0301922
-0.0126527
0.000887828
0.0115966
0.0202305
0.0272871
0.0331223
0.0379801
0.0420015
0.0453104
0.04802
0.0501995
0.051932
0.0533053
0.0544894
0.0557217
0.0570431
0.0578948
0.0578445
0.0445616
0.0448776
0.0451164
0.0446225
0.0434691
0.041894
0.0399629
0.0376297
0.0347998
0.0313723
0.0272526
0.0222927
0.0162916
0.00906851
0.000428206
-0.0100468
-0.0228501
-0.0386046
-0.058198
-0.0828137
-0.114006
-0.153685
-0.20279
-0.255584
-0.278714
-0.294755
-0.271365
-0.249707
-0.207108
-0.159252
-0.117639
-0.084524
-0.0584776
-0.0378364
-0.0213382
-0.00800041
0.00289997
0.0118923
0.019364
0.0255921
0.0307737
0.0350988
0.0387192
0.0417332
0.0442375
0.04631
0.0480084
0.0493685
0.0502881
0.0505931
0.0505216
0.0378065
0.0377364
0.0374453
0.0367683
0.0355126
0.0336478
0.0312183
0.0282383
0.0246708
0.0204362
0.0154271
0.00952527
0.00252025
-0.00590344
-0.0159571
-0.0280024
-0.042488
-0.0599129
-0.0809462
-0.106278
-0.136438
-0.171963
-0.212558
-0.251188
-0.263731
-0.260508
-0.254684
-0.241126
-0.240071
-0.242647
-0.241382
-0.237647
-0.215445
-0.177712
-0.141273
-0.109861
-0.0833359
-0.0611392
-0.0427954
-0.0275635
-0.0148616
-0.00428672
0.00456099
0.0119898
0.0182393
0.0235155
0.0279803
0.0317602
0.034951
0.0376187
0.0397824
0.041401
0.0424055
0.0428613
0.043009
0.0322478
0.0322702
0.0316042
0.0303641
0.0286019
0.026303
0.0234635
0.0200589
0.016036
0.0113067
0.0057633
-0.000703303
-0.00826126
-0.0172575
-0.0279761
-0.0407044
-0.0557821
-0.0736333
-0.0947414
-0.119568
-0.148548
-0.182131
-0.220332
-0.256432
-0.272868
-0.274185
-0.267691
-0.256208
-0.253879
-0.257274
-0.257618
-0.253308
-0.230007
-0.191843
-0.156056
-0.125238
-0.0989164
-0.0765117
-0.0575604
-0.0415815
-0.0280908
-0.0167328
-0.00713243
0.00100663
0.00788431
0.0137316
0.018711
0.0229563
0.0265665
0.029611
0.0321322
0.0341177
0.0355391
0.0363825
0.0365712
0.0266441
0.0267309
0.0261075
0.0247343
0.0227516
0.0202324
0.0171975
0.0136159
0.00942209
0.004524
-0.00119664
-0.00786923
-0.0156566
-0.0247826
-0.0355547
-0.0482007
-0.0630401
-0.0804458
-0.100848
-0.124727
-0.152634
-0.185242
-0.223067
-0.260504
-0.282787
-0.289493
-0.284674
-0.274819
-0.273585
-0.277552
-0.276881
-0.267771
-0.239151
-0.199032
-0.16294
-0.13248
-0.106605
-0.0845952
-0.0658838
-0.0499826
-0.036488
-0.0250052
-0.0152386
-0.0069038
0.000214565
0.00629674
0.0114952
0.0159425
0.0197431
0.0229819
0.0257105
0.0279174
0.0295378
0.0304496
0.0305457
0.0214582
0.0215725
0.0210226
0.019685
0.0176781
0.0151234
0.0120696
0.00849139
0.00432319
-0.000524631
-0.00616384
-0.0127226
-0.0203409
-0.0291955
-0.0395273
-0.051538
-0.0655265
-0.0818386
-0.100907
-0.123263
-0.14958
-0.180932
-0.218199
-0.256796
-0.282833
-0.291609
-0.288282
-0.281294
-0.282545
-0.287312
-0.285548
-0.271066
-0.238084
-0.197544
-0.162018
-0.132555
-0.107878
-0.0869741
-0.0691916
-0.0540187
-0.0410497
-0.0299464
-0.0204343
-0.0122616
-0.00523256
0.000796287
0.00597699
0.010431
0.0142531
0.017529
0.0203036
0.0225519
0.0241672
0.025009
0.0250463
0.0168365
0.0169564
0.0164969
0.0152895
0.0134005
0.0109609
0.00803872
0.00462516
0.00065932
-0.00393581
-0.00925558
-0.0154121
-0.022522
-0.0307102
-0.0401792
-0.0511153
-0.0637525
-0.0784077
-0.0954707
-0.115448
-0.139089
-0.167354
-0.20114
-0.236906
-0.262594
-0.271477
-0.26895
-0.264684
-0.268277
-0.273853
-0.272181
-0.255751
-0.222595
-0.184926
-0.152513
-0.125649
-0.103193
-0.0842254
-0.0680368
-0.0541554
-0.0422139
-0.0319191
-0.0230296
-0.0153459
-0.00870017
-0.00295755
0.00199857
0.00627449
0.00995956
0.0131275
0.015811
0.0179621
0.0194521
0.0201618
0.0201461
0.0129794
0.0131187
0.01275
0.0117048
0.0100142
0.007795
0.00512496
0.00200571
-0.00160594
-0.00577359
-0.0105726
-0.0160897
-0.0224193
-0.0296606
-0.0379469
-0.0474435
-0.0583173
-0.0708017
-0.0851854
-0.101873
-0.121353
-0.144268
-0.171109
-0.199372
-0.220261
-0.227627
-0.225166
-0.22273
-0.22775
-0.23441
-0.233913
-0.21913
-0.191466
-0.160944
-0.134298
-0.111964
-0.0929926
-0.0768072
-0.0628761
-0.050805
-0.0403215
-0.0312004
-0.0232564
-0.0163364
-0.0103123
-0.00507396
-0.000527177
0.00341425
0.00682314
0.00975729
0.0122316
0.0141914
0.0155123
0.0161228
0.0160962
0.00993349
0.0100889
0.00980838
0.00895508
0.00752714
0.00561605
0.0032927
0.000570749
-0.00257666
-0.00619603
-0.0103382
-0.0150643
-0.020444
-0.0265398
-0.033431
-0.0412369
-0.0500515
-0.0599943
-0.0712271
-0.0839224
-0.0982703
-0.114501
-0.132673
-0.151028
-0.164253
-0.168227
-0.165178
-0.163587
-0.16893
-0.176409
-0.178005
-0.168306
-0.149613
-0.128652
-0.109556
-0.0929205
-0.0783927
-0.0656429
-0.0544575
-0.0446025
-0.0358999
-0.0282278
-0.0214691
-0.0155234
-0.0103041
-0.00573179
-0.00173637
0.00174611
0.00476939
0.00737011
0.00954879
0.0112508
0.0123699
0.0128619
0.0128002
0.00765672
0.00784101
0.0076659
0.00701993
0.00589049
0.00433743
0.00241888
0.000156304
-0.00246201
-0.00546217
-0.00887477
-0.0127324
-0.0170716
-0.0219247
-0.0273274
-0.0333278
-0.039947
-0.0472006
-0.0550943
-0.0635979
-0.0726573
-0.0821641
-0.0918839
-0.100595
-0.105636
-0.105295
-0.101574
-0.100054
-0.105002
-0.112621
-0.116734
-0.11369
-0.104555
-0.0930675
-0.0816438
-0.0709482
-0.0611013
-0.0520653
-0.0438369
-0.0363895
-0.0296526
-0.0235851
-0.0181501
-0.0133019
-0.00899556
-0.00518627
-0.00182986
0.00111163
0.00367118
0.00586758
0.00768989
0.00908411
0.00997307
0.010344
0.0102468
0.00612171
0.00633921
0.00627622
0.00583549
0.00500819
0.00382915
0.00233927
0.000560225
-0.00150375
-0.00385901
-0.00651498
-0.00948052
-0.0127613
-0.016362
-0.0202724
-0.0244742
-0.028934
-0.0335647
-0.0382702
-0.0428963
-0.0472115
-0.0509316
-0.0536621
-0.0546028
-0.0528716
-0.0486897
-0.044227
-0.0427508
-0.0469951
-0.0542368
-0.0606327
-0.063447
-0.0622872
-0.0586259
-0.0538097
-0.0484697
-0.0429353
-0.0374434
-0.032107
-0.0270406
-0.0222835
-0.0178503
-0.0137763
-0.010067
-0.00671725
-0.0037147
-0.00104293
0.00131399
0.00336704
0.00511881
0.00655057
0.00761778
0.00827304
0.00850816
0.00836467
0.00522924
0.00546737
0.00550473
0.00526284
0.00473359
0.00392604
0.00286532
0.00157436
6.708e-05
-0.00164632
-0.00355685
-0.00565339
-0.00791104
-0.0103045
-0.012796
-0.0153262
-0.017808
-0.0201144
-0.0220705
-0.0234499
-0.0239602
-0.0232724
-0.020941
-0.016548
-0.0102333
-0.00336574
0.00167212
0.00295085
-0.00041286
-0.00708726
-0.0150042
-0.0218843
-0.0262613
-0.0282175
-0.0283909
-0.0273274
-0.0254132
-0.0229558
-0.0202123
-0.0173099
-0.0143904
-0.0115236
-0.00876333
-0.0061662
-0.0037611
-0.00156308
0.000417713
0.00217621
0.00370633
0.0049971
0.00602508
0.00675964
0.00717323
0.00727105
0.00708331
0.00482446
0.00506542
0.00519374
0.00515165
0.00491239
0.00446886
0.00382955
0.00301707
0.00205203
0.000957309
-0.00024383
-0.00152205
-0.00283777
-0.0041442
-0.0053778
-0.00645007
-0.00725085
-0.0076322
-0.00740831
-0.0063333
-0.00412275
-0.000457776
0.00503229
0.0124886
0.0212665
0.0295287
0.0349122
0.0361978
0.0334952
0.027345
0.0187633
0.00973594
0.00217263
-0.00327061
-0.00677961
-0.00875997
-0.00958205
-0.00953846
-0.0088861
-0.00783907
-0.00650924
-0.00503164
-0.00347241
-0.0019029
-0.000384986
0.00104464
0.00235734
0.00353015
0.00454543
0.00537992
0.00600993
0.00641487
0.00659057
0.0065564
0.00633855
0.00487411
0.00510825
0.00529997
0.00542485
0.00545364
0.00534894
0.00510824
0.00474637
0.00428801
0.00376327
0.00320641
0.00266031
0.00217452
0.00181052
0.00164329
0.00176499
0.00229252
0.00336601
0.00516118
0.00789489
0.0118215
0.0172065
0.0242954
0.0330506
0.0426555
0.0512301
0.0566478
0.0580554
0.0558153
0.0501997
0.0417153
0.032052
0.0231319
0.0159172
0.0104926
0.00659441
0.00392227
0.00222268
0.00128524
0.000901243
0.000926666
0.00125681
0.00178573
0.00244969
0.00317357
0.00390396
0.00459894
0.00522479
0.00575163
0.00615109
0.00640084
0.0064917
0.00644639
0.00629841
0.00605858
0.00527974
0.00550666
0.0057469
0.00601687
0.00627685
0.00647852
0.00659588
0.00663943
0.0066357
0.00661827
0.00662899
0.00671369
0.00692612
0.0073283
0.00799767
0.00902519
0.0105155
0.0125982
0.0154159
0.0191341
0.0239539
0.0300887
0.037665
0.0465469
0.0559125
0.0640771
0.0692191
0.0706815
0.0688312
0.0638244
0.0559497
0.0466269
0.0375824
0.0298083
0.023533
0.0186209
0.0148563
0.0120391
0.0100005
0.00858685
0.00764134
0.00705873
0.00675519
0.00666337
0.00671057
0.0068324
0.00697976
0.00711314
0.00719688
0.00720032
0.00710465
0.00691435
0.00667065
0.00643213
0.00618489
0.00596176
0.0061707
0.00645974
0.00685966
0.00732578
0.0077913
0.00821752
0.00861159
0.00899778
0.0094104
0.00989164
0.0104858
0.0112457
0.0122315
0.0135145
0.0151752
0.017306
0.0200079
0.0233941
0.0275839
0.0327122
0.0389259
0.0462978
0.0546332
0.0631931
0.0705563
0.0752157
0.076642
0.0751215
0.0707609
0.0637828
0.0553307
0.046856
0.0392686
0.032856
0.0275772
0.0232928
0.0198611
0.0171492
0.0150414
0.0134272
0.0121874
0.0112566
0.0105639
0.0100604
0.00967767
0.00936306
0.00907377
0.00877357
0.0084331
0.00803833
0.00760866
0.00720711
0.00689672
0.0066474
0.0069137
0.00711824
0.00744251
0.00793657
0.00856121
0.00923249
0.00990793
0.0105858
0.0112854
0.0120383
0.0128843
0.0138645
0.0150291
0.0164289
0.0181252
0.0201874
0.0226881
0.0257038
0.0293154
0.0336118
0.0386755
0.0445839
0.0513718
0.0588452
0.0663674
0.0727704
0.0768554
0.0781809
0.0769441
0.0732266
0.0672242
0.0598477
0.0522695
0.0452722
0.0391485
0.033919
0.0295114
0.0258293
0.022775
0.0202625
0.0182131
0.0165432
0.0151654
0.0140328
0.0131032
0.0123243
0.0116395
0.0110076
0.0103933
0.00976961
0.00913253
0.0085149
0.00798812
0.00762389
0.00738026
0.00807899
0.00827121
0.0086071
0.00916536
0.00990064
0.0107267
0.0115923
0.0124852
0.0134206
0.0144267
0.0155379
0.0167914
0.0182295
0.0198964
0.0218427
0.0241206
0.0267855
0.0298943
0.0335035
0.03767
0.0424485
0.047871
0.0539174
0.0604305
0.0668845
0.0723313
0.0758348
0.077022
0.0760297
0.0729107
0.06784
0.0615528
0.054968
0.0487272
0.0431085
0.0381706
0.033885
0.0301932
0.0270293
0.024332
0.0220416
0.0201024
0.0184447
0.0170125
0.0157754
0.0147006
0.0137366
0.0128426
0.0119854
0.011144
0.0103225
0.00956496
0.00895502
0.00855353
0.00832351
0.00933401
0.0095065
0.00985378
0.0104581
0.0112724
0.0122094
0.0132082
0.014253
0.015354
0.0165335
0.0178215
0.0192499
0.0208533
0.0226684
0.0247337
0.0270897
0.0297767
0.0328339
0.0363011
0.0402129
0.0445952
0.0494611
0.0547784
0.0603634
0.0657953
0.0703629
0.0733071
0.074345
0.0735493
0.0709606
0.0667497
0.0614684
0.0558392
0.0503855
0.0453551
0.040825
0.0367963
0.0332408
0.0301197
0.0273878
0.0250022
0.0229232
0.0211089
0.0195016
0.0180582
0.0167772
0.0156161
0.0145345
0.0135035
0.0125081
0.0115587
0.0107058
0.0100413
0.00962447
0.00940187
0.0106749
0.0108309
0.0111681
0.0117861
0.0126428
0.013641
0.0147194
0.0158576
0.0170592
0.0183426
0.0197326
0.0212557
0.0229394
0.0248109
0.026902
0.0292422
0.0318592
0.0347802
0.0380295
0.0416275
0.0455861
0.0498992
0.0545035
0.059241
0.0637741
0.067552
0.070031
0.0709198
0.070293
0.0681766
0.0646959
0.060287
0.0555226
0.0508155
0.0463793
0.0422967
0.0385927
0.0352551
0.0322661
0.0295963
0.0272157
0.0250948
0.0232051
0.0215116
0.0199633
0.0185519
0.0172647
0.0160623
0.0149186
0.0138243
0.0127967
0.011889
0.0111903
0.0107728
0.010561
0.0120175
0.0121552
0.0124854
0.013098
0.0139646
0.0149852
0.0160991
0.0172813
0.0185313
0.0198627
0.0212951
0.0228497
0.0245483
0.0264128
0.0284652
0.0307273
0.0332181
0.0359564
0.0389551
0.0422231
0.0457561
0.0495308
0.0534912
0.057505
0.0612863
0.0644027
0.0664355
0.0672004
0.066701
0.0649787
0.0621193
0.0584612
0.0544511
0.0504179
0.0465442
0.0429117
0.0395526
0.0364732
0.033667
0.0311184
0.0288083
0.0267151
0.0248183
0.023096
0.0215136
0.0200392
0.0186821
0.0174149
0.016212
0.01507
0.014011
0.0130938
0.0124024
0.011995
0.0118006
0.0133171
0.0134366
0.0137534
0.0143557
0.0152077
0.0162213
0.0173351
0.0185218
0.0197782
0.0211136
0.0225433
0.0240834
0.0257516
0.0275639
0.0295354
0.0316816
0.0340155
0.0365478
0.0392812
0.0422137
0.0453347
0.0486209
0.052016
0.055393
0.0585254
0.0610954
0.0628004
0.0634746
0.0631216
0.061693
0.0593058
0.0562745
0.0529095
0.0494694
0.0461099
0.0429044
0.0398911
0.0370834
0.0344859
0.032093
0.0298942
0.027876
0.0260217
0.0243176
0.0227438
0.0212614
0.0198794
0.0185908
0.0173699
0.0162146
0.0151488
0.0142313
0.013548
0.0131492
0.0129855
0.0146028
0.0147085
0.0149996
0.0155616
0.0163681
0.0173435
0.0184261
0.0195859
0.0208161
0.0221223
0.0235159
0.0250101
0.0266168
0.0283473
0.030212
0.0322214
0.0343817
0.0366953
0.0391594
0.0417689
0.0445103
0.0473552
0.0502434
0.0530763
0.0556818
0.0578173
0.0592426
0.0598271
0.0595363
0.0583832
0.0565209
0.0539176
0.0510884
0.048158
0.0452546
0.0424424
0.039759
0.0372246
0.0348483
0.0326312
0.0305688
0.0286549
0.0268779
0.0252276
0.0236939
0.0222547
0.0208817
0.0195985
0.0183908
0.0172519
0.0162087
0.0153217
0.0146685
0.0143015
0.0141505
0.0157896
0.0158802
0.0161433
0.0166589
0.0174116
0.0183327
0.0193657
0.020478
0.0216605
0.022916
0.0242518
0.0256773
0.0272014
0.0288315
0.030574
0.0324334
0.0344101
0.0365039
0.0387093
0.0410181
0.0434105
0.0458591
0.0483156
0.0506984
0.0528721
0.0546496
0.0558471
0.0563536
0.0561216
0.0551458
0.0535057
0.0514197
0.0491041
0.0466045
0.044103
0.0416474
0.0392745
0.0370048
0.0348499
0.032817
0.0309068
0.0291159
0.0274395
0.025869
0.0243983
0.0230176
0.0217003
0.0204477
0.0192758
0.0181777
0.0171787
0.0163375
0.0157263
0.0153832
0.0152463
0.016855
0.0169269
0.0171591
0.0176296
0.0183238
0.0191846
0.0201566
0.0212085
0.0223287
0.0235183
0.0247814
0.0261238
0.0275514
0.0290691
0.0306789
0.0323804
0.034174
0.0360561
0.038018
0.0400479
0.0421281
0.0442337
0.0463243
0.0483317
0.0501516
0.0516407
0.0526578
0.0530972
0.0529035
0.0520818
0.0507106
0.0489387
0.0469383
0.0448637
0.0427504
0.0406112
0.0385236
0.0365049
0.0345678
0.032721
0.030969
0.0293138
0.0277515
0.0262779
0.0248887
0.0235793
0.0223365
0.0211422
0.0200222
0.0189823
0.0180428
0.0172572
0.016691
0.0163767
0.016257
0.0177724
0.0178311
0.0180397
0.0184679
0.0191081
0.0199044
0.0208083
0.0217897
0.0228375
0.0239495
0.0251286
0.0263784
0.0277004
0.0290967
0.030568
0.0321136
0.0337296
0.0354095
0.0371447
0.0389241
0.040731
0.0425427
0.0443237
0.0460208
0.0475537
0.0488134
0.0496832
0.050065
0.0498991
0.0491952
0.048032
0.0465331
0.0448257
0.0430164
0.0411874
0.0393932
0.0375755
0.0357917
0.0340623
0.0323983
0.0308067
0.0292909
0.027851
0.0264847
0.0251886
0.0239616
0.0227996
0.0216874
0.0206317
0.0196579
0.018785
0.0180623
0.0175477
0.0172622
0.0171641
0.0185853
0.0186282
0.0188183
0.0192046
0.0197812
0.020505
0.0213318
0.0222338
0.0231996
0.0242264
0.0253139
0.0264633
0.0276745
0.0289477
0.0302818
0.031674
0.033119
0.034611
0.0361409
0.0376976
0.0392664
0.0408257
0.0423481
0.0437907
0.0450915
0.0461659
0.0469161
0.0472482
0.0471046
0.0464953
0.0454985
0.0442213
0.0427645
0.0412088
0.0396058
0.0380008
0.0364281
0.0349074
0.033384
0.031896
0.0304597
0.0290824
0.0277662
0.0265115
0.0253166
0.0241797
0.0231025
0.0220796
0.0211051
0.0202035
0.0194029
0.0187451
0.0182867
0.0180283
0.0179452
0.019285
0.0193328
0.0195008
0.0198369
0.020343
0.0209854
0.0217274
0.0225441
0.0234228
0.0243591
0.0253505
0.0263963
0.0274958
0.0286477
0.0298481
0.0310939
0.0323801
0.0337004
0.0350465
0.0364075
0.0377694
0.039116
0.0404225
0.0416561
0.0427684
0.0436927
0.0443427
0.0446322
0.0445061
0.0439759
0.0431148
0.042018
0.0407695
0.0394301
0.0380411
0.0366315
0.0352254
0.033846
0.0325139
0.0312399
0.0299633
0.028721
0.0275268
0.0263833
0.0252908
0.0242491
0.0232605
0.0223259
0.0214426
0.0206217
0.0198968
0.0193051
0.0188903
0.0186735
0.0186008
0.0198635
0.0198891
0.0200276
0.0203137
0.0207536
0.0213204
0.0219814
0.0227146
0.0235075
0.0243532
0.0252499
0.0261943
0.0271843
0.0282181
0.0292921
0.030402
0.0315432
0.0327093
0.033892
0.0350822
0.0362679
0.0374345
0.0385627
0.0396264
0.0405848
0.0413837
0.0419498
0.0422036
0.0420912
0.0416275
0.0408794
0.0399311
0.0388535
0.0376964
0.0364923
0.0352624
0.0340251
0.0327943
0.0315865
0.0304186
0.0293057
0.02823
0.0271602
0.0261273
0.0251378
0.0241915
0.0232922
0.0224444
0.0216502
0.020916
0.0202671
0.0197411
0.0193742
0.0191803
0.0191221
0.0202366
0.0202521
0.0203671
0.0206164
0.0210041
0.0215076
0.0220981
0.0227542
0.0234647
0.0242236
0.0250273
0.0258732
0.0267589
0.0276817
0.0286376
0.0296234
0.0306336
0.0316619
0.0327013
0.0337435
0.0347785
0.0357944
0.0367743
0.0376972
0.0385306
0.0392262
0.0397217
0.039944
0.0398433
0.0394357
0.038782
0.0379579
0.0370225
0.0360168
0.0349677
0.0338934
0.0328074
0.0317196
0.0306397
0.0295793
0.0285541
0.0275746
0.0266457
0.0257499
0.0248692
0.0240209
0.0232113
0.0224484
0.0217376
0.0210868
0.0205143
0.0200484
0.0197288
0.0195605
0.0195114
0.0204487
0.0204654
0.0205679
0.0207891
0.0211337
0.0215781
0.0220997
0.0226795
0.023308
0.0239815
0.0246957
0.0254482
0.0262358
0.0270559
0.0279047
0.028778
0.0296706
0.0305776
0.0314921
0.0324065
0.033313
0.0342015
0.0350585
0.0358652
0.0365941
0.037205
0.0376405
0.0378353
0.0377454
0.0373853
0.0368111
0.0360906
0.0352738
0.0343944
0.033476
0.0325341
0.0315796
0.0306209
0.0296672
0.0287266
0.0278046
0.0269087
0.0260457
0.0252238
0.0244477
0.0237168
0.0230179
0.0223439
0.0217106
0.0211343
0.0206296
0.0202264
0.0199528
0.0198063
0.0197648
0.0205867
0.0205945
0.0206791
0.0208626
0.021155
0.0215352
0.0219843
0.0224888
0.0230404
0.0236339
0.0242654
0.0249317
0.0256298
0.0263565
0.0271081
0.0278809
0.0286702
0.0294709
0.0302774
0.0310833
0.0318803
0.0326612
0.0334136
0.0341227
0.0347643
0.035303
0.0356883
0.0358582
0.0357771
0.0354568
0.0349502
0.0343165
0.0335993
0.0328273
0.03202
0.0311912
0.0303506
0.0295072
0.028668
0.027836
0.0270173
0.0262185
0.0254457
0.0247031
0.0239924
0.0233193
0.0226885
0.0220988
0.0215471
0.0210631
0.0206259
0.02028
0.0200468
0.0199235
0.0198916
0.0205467
0.0205498
0.0206163
0.0207695
0.0210176
0.0213451
0.0217356
0.0221776
0.0226628
0.0231867
0.0237449
0.0243348
0.0249529
0.0255964
0.0262622
0.0269461
0.0276442
0.0283523
0.0290649
0.0297764
0.0304803
0.0311692
0.0318336
0.0324596
0.0330256
0.0335015
0.0338416
0.0339898
0.0339156
0.0336315
0.0331825
0.0326229
0.0319897
0.0313095
0.0305984
0.0298671
0.0291265
0.0283839
0.0276429
0.0269082
0.0261841
0.0254758
0.0247883
0.0241255
0.0234897
0.0228851
0.0223157
0.0217858
0.0213004
0.0208584
0.020437
0.020204
0.020035
0.0199157
0.0198847
0.0203192
0.0203224
0.0203873
0.0205254
0.0207449
0.0210347
0.0213789
0.0217682
0.0221958
0.0226576
0.0231503
0.0236711
0.0242173
0.0247867
0.0253757
0.0259812
0.0265995
0.0272264
0.0278572
0.0284869
0.0291101
0.0297198
0.0303079
0.0308623
0.031363
0.0317834
0.0320817
0.0322105
0.032142
0.0318897
0.0314916
0.0309957
0.0304358
0.0298341
0.0292056
0.0285608
0.0279076
0.0272505
0.0265952
0.0259458
0.0253057
0.0246791
0.0240699
0.0234823
0.0229192
0.0223837
0.0218802
0.0214127
0.0209863
0.0206117
0.0203022
0.020073
0.0198893
0.0196958
0.0197606
0.0200447
0.0200482
0.0201142
0.0202389
0.0204231
0.0206651
0.0209569
0.0212906
0.0216604
0.0220624
0.0224939
0.0229514
0.0234325
0.0239348
0.0244557
0.0249917
0.0255391
0.0260948
0.0266538
0.0272121
0.0277646
0.0283046
0.0288256
0.0293162
0.0297595
0.0301302
0.0303916
0.0305029
0.0304401
0.0302162
0.029864
0.0294253
0.0289292
0.0283958
0.0278395
0.0272697
0.0266916
0.02611
0.0255301
0.0249549
0.0243882
0.0238342
0.0232955
0.0227763
0.0222791
0.0218074
0.0213649
0.0209555
0.0205828
0.0202558
0.0199837
0.0197757
0.0196387
0.0195666
0.0195323
0.0197342
0.0197445
0.0197895
0.0198825
0.0200202
0.0202121
0.0204528
0.0207348
0.0210519
0.0214004
0.0217769
0.0221786
0.0226027
0.0230463
0.0235062
0.0239802
0.0244656
0.0249582
0.0254538
0.0259488
0.0264385
0.0269172
0.0273781
0.0278119
0.0282034
0.0285296
0.0287585
0.0288546
0.0287965
0.0285973
0.0282864
0.0278984
0.0274587
0.0269873
0.026496
0.0259914
0.0254788