/*--------------------------------*- C++ -*----------------------------------*\
  =========                 |
  \\      /  F ield         | OpenFOAM: The Open Source CFD Toolbox
   \\    /   O peration     | Website:  https://openfoam.org
    \\  /    A nd           | Version:  7
     \\/     M anipulation  |
\*---------------------------------------------------------------------------*/
FoamFile
{
    version     2.0;
    format      ascii;
    class       surfaceScalarField;
    location    "15";
    object      phi;
}
// * * * * * * * * * * * * * * * * * * * * * * * * * * * * * * * * * * * * * //

dimensions      [0 3 -1 0 0 0 0];

internalField   nonuniform List<scalar> 
34768
(
8.14386e-05
0.000970503
-0.000149705
-4.38569e-05
2.53281e-05
0.000920809
-1.55094e-05
1.06788e-05
0.000907323
-8.15759e-06
6.66574e-06
0.000904188
-5.33573e-06
4.62205e-06
0.00090351
-4.31138e-06
3.93153e-06
0.000903176
-3.64925e-06
3.53327e-06
0.000903112
-3.47297e-06
3.4497e-06
0.000903118
-3.16177e-06
3.09547e-06
0.00090326
-3.25397e-06
3.02526e-06
0.000903322
-3.11521e-06
3.0126e-06
0.000903295
-3.02514e-06
3.24171e-06
0.000903276
-3.07118e-06
3.00246e-06
0.000903561
-3.24536e-06
3.18856e-06
0.000903549
-3.24242e-06
3.39562e-06
0.000903539
-3.35894e-06
3.32094e-06
0.00090383
-3.59254e-06
3.56246e-06
0.000903723
-3.54169e-06
3.71897e-06
0.000903815
-3.70517e-06
3.68934e-06
0.000903909
-3.88215e-06
3.77287e-06
0.000904102
-4.17177e-06
4.76861e-06
0.000904096
-5.57319e-06
6.37571e-06
0.000905191
-5.23544e-06
4.38319e-06
0.000904866
-3.6276e-06
4.09008e-06
0.000904601
-5.35799e-06
-3.55322e-07
0.000909277
-7.16415e-07
1.28561e-06
0.000908625
-1.18878e-06
8.399e-07
0.000909433
-5.46182e-07
-9.09389e-09
0.000909641
5.674e-07
-8.57351e-07
0.000909374
1.21404e-06
-1.33307e-06
0.000909204
1.36181e-06
-1.41295e-06
0.000909147
1.4147e-06
-1.39889e-06
0.00090907
1.38451e-06
-1.37257e-06
0.000909075
1.31284e-06
-1.3055e-06
0.00090909
1.30105e-06
-1.29894e-06
0.000909096
1.30033e-06
-1.30399e-06
0.000909102
1.31168e-06
-1.32157e-06
0.000909109
1.336e-06
-1.45261e-06
0.000909216
1.77417e-06
-1.19814e-06
0.000909924
7.27669e-07
-5.59513e-07
0.000910332
4.97077e-07
-4.37197e-07
0.000910341
4.83577e-07
-5.33098e-07
0.000910251
5.89594e-07
-6.50206e-07
0.000910262
7.18868e-07
-6.93143e-07
0.000910076
7.77052e-07
-8.68871e-07
0.000910094
9.72806e-07
-1.08809e-06
0.000910018
1.2194e-06
-1.36743e-06
0.000909951
1.53787e-06
-1.73356e-06
0.000909998
1.96218e-06
-2.33028e-06
0.000910071
2.5494e-06
-2.93271e-06
0.000910087
3.39851e-06
-4.07047e-06
0.000910276
4.67505e-06
-5.54278e-06
0.000910471
6.55984e-06
-7.61933e-06
0.000910562
8.54729e-06
-6.61329e-06
0.000907566
-3.84024e-06
-2.68023e-05
0.000940141
-0.000829535
0.000145228
0.000703888
-1.96114e-05
-0.000971672
-0.000149717
0.000117317
0.00100404
-0.000925027
-9.03471e-05
7.08339e-05
0.000944522
-0.000911465
-5.66702e-05
4.61614e-05
0.000921958
-0.000907123
-3.81551e-05
3.20913e-05
0.000913167
-0.000905434
-2.73766e-05
2.36232e-05
0.000909166
-0.000904497
-2.01062e-05
1.79247e-05
0.000906658
-0.00090397
-1.56773e-05
1.38432e-05
0.000905782
-0.000903845
-1.21881e-05
1.0927e-05
0.000905082
-0.000903731
-9.859e-06
8.81537e-06
0.000904747
-0.00090378
-7.81429e-06
7.19604e-06
0.00090437
-0.000903669
-6.38935e-06
5.73893e-06
0.00090429
-0.000903583
-5.28056e-06
4.66137e-06
0.000904172
-0.000903813
-4.12111e-06
3.80946e-06
0.000904095
-0.000903754
-3.46777e-06
3.04742e-06
0.000904145
-0.000903702
-2.99122e-06
2.6518e-06
0.000904013
-0.000903855
-2.37196e-06
2.20596e-06
0.000903993
-0.000903812
-2.19674e-06
1.99915e-06
0.000903981
-0.00090387
-1.95599e-06
1.82268e-06
0.000903975
-0.000903931
-1.94214e-06
1.96978e-06
0.000903875
-0.000904194
-1.74844e-06
1.83332e-06
0.00090408
-0.00090396
-2.16754e-06
1.50605e-06
0.000904591
-0.000907007
-1.67291e-06
4.57026e-06
0.000904079
-0.000903342
-3.45808e-06
-2.05949e-06
0.000908828
-0.000907855
8.35065e-07
-7.38034e-07
0.000907725
-0.000908318
7.53915e-07
-7.09761e-07
0.00090824
-0.000909597
6.42338e-07
-3.00817e-07
0.000909221
-0.000910086
1.05826e-07
-4.16699e-07
0.000910364
-0.000909513
7.10616e-07
-5.49656e-07
0.000909319
-0.000909318
2.7416e-07
-6.25882e-07
0.000909637
-0.000909101
7.07011e-07
-6.39488e-07
0.000909002
-0.000908971
4.66954e-07
-3.08846e-07
0.000908782
-0.000908985
1.50949e-07
-2.99064e-08
0.000908835
-0.000909034
-1.35879e-07
2.13018e-07
0.00090893
-0.000909066
-1.80339e-07
3.0784e-07
0.000908914
-0.000909102
-3.21178e-07
2.9408e-07
0.000909107
-0.000909141
-2.48875e-07
1.62879e-07
0.000909208
-0.000909583
4.51511e-08
-2.94084e-07
0.000909815
-0.000909829
9.6897e-07
-1.28578e-06
0.000910131
-0.000910178
1.23338e-06
-1.32365e-06
0.000910256
-0.000910431
1.34981e-06
-1.52058e-06
0.000910593
-0.000910491
1.83401e-06
-2.19575e-06
0.000910847
-0.000910461
2.60887e-06
-3.07671e-06
0.000910926
-0.000910446
3.60835e-06
-4.30556e-06
0.000911143
-0.000910454
4.98377e-06
-5.84508e-06
0.000911318
-0.000910498
6.71275e-06
-7.89184e-06
0.000911681
-0.000910696
9.0151e-06
-1.03951e-05
0.000912082
-0.000910885
1.18788e-05
-1.37939e-05
0.000912806
-0.000911324
1.58092e-05
-1.82801e-05
0.000913802
-0.000911924
2.11162e-05
-2.47272e-05
0.000915544
-0.000913098
2.90001e-05
-3.42514e-05
0.000918363
-0.000915156
4.08388e-05
-4.91193e-05
0.000923454
-0.000918933
6.01331e-05
-7.44371e-05
0.000933254
-0.000924311
9.40044e-05
-0.000124085
0.000954396
-0.000979075
0.000164868
-0.000142029
0.000956224
-0.000598891
8.58536e-05
0.000517629
-4.59162e-06
-0.00102192
-0.000135224
0.00013227
0.00102489
-0.000963042
-0.00011234
9.40528e-05
0.000981352
-0.00093333
-7.98787e-05
6.8447e-05
0.000944777
-0.000920495
-5.91068e-05
5.12984e-05
0.000928311
-0.000914185
-4.46198e-05
3.91452e-05
0.000919666
-0.000910587
-3.43943e-05
3.0315e-05
0.00091467
-0.000908059
-2.67972e-05
2.3133e-05
0.000911726
-0.000907034
-2.05647e-05
1.83156e-05
0.000909284
-0.000906166
-1.61445e-05
1.42022e-05
0.000908108
-0.000905676
-1.2468e-05
1.09023e-05
0.000907239
-0.000905159
-9.69921e-06
8.32364e-06
0.000906531
-0.000905055
-7.07888e-06
6.23636e-06
0.000905892
-0.000904725
-5.10368e-06
4.25422e-06
0.000905566
-0.000904543
-3.60241e-06
2.92028e-06
0.000905215
-0.000904494
-2.2271e-06
1.795e-06
0.000904914
-0.000904167
-1.34648e-06
9.5223e-07
0.000904546
-0.000904155
-5.38315e-07
2.73814e-07
0.000904402
-0.000904054
-8.75233e-08
4.6463e-08
0.000904076
-0.000904064
3.18106e-07
-3.41285e-07
0.000904066
-0.000903783
8.96956e-08
-7.00553e-07
0.000904371
-0.000904813
1.03674e-06
5.78201e-08
0.000903693
-0.000906075
2.00652e-06
-3.62986e-06
0.000907671
-0.000907922
3.11593e-06
-2.74785e-06
0.000907525
-0.000907768
2.15168e-06
-2.10668e-06
0.000907693
-0.00090801
2.00017e-06
-1.97878e-06
0.000907958
-0.000908554
1.59488e-06
-1.12727e-06
0.000908054
-0.000910569
5.5202e-07
-6.57505e-07
0.000910643
-0.000909106
7.46754e-07
-4.75573e-07
0.000908803
-0.000909776
5.48655e-08
2.02396e-07
0.000909488
-0.000908793
-2.49775e-07
4.34165e-07
0.000908579
-0.000908528
-7.87972e-07
1.11181e-06
0.000908175
-0.000908627
-1.4161e-06
1.66453e-06
0.000908352
-0.000908698
-1.93493e-06
1.99485e-06
0.000908614
-0.000908957
-2.21925e-06
2.27969e-06
0.000908875
-0.000909133
-2.29815e-06
2.25014e-06
0.000909161
-0.000909321
-2.15442e-06
1.89053e-06
0.000909569
-0.000910523
-1.17386e-06
-1.12169e-07
0.000911795
-0.00091034
5.8509e-08
-7.66414e-08
0.000910347
-0.000910474
4.59423e-07
-9.17115e-07
0.000910923
-0.000910929
1.34662e-06
-1.95622e-06
0.000911533
-0.000911316
2.54714e-06
-3.3262e-06
0.000912092
-0.00091165
4.19955e-06
-5.17355e-06
0.000912623
-0.000912054
6.26011e-06
-7.46705e-06
0.000913261
-0.000912563
8.91301e-06
-1.0409e-05
0.00091406
-0.000913131
1.20818e-05
-1.40512e-05
0.000915104
-0.00091405
1.61536e-05
-1.86226e-05
0.000916523
-0.000915266
2.14112e-05
-2.4472e-05
0.000918331
-0.000917238
2.8087e-05
-3.2142e-05
0.000921297
-0.00092023
3.69616e-05
-4.25904e-05
0.000925863
-0.000925328
4.92216e-05
-5.70917e-05
0.000933203
-0.000934068
6.64045e-05
-7.77328e-05
0.000945404
-0.000950091
9.14777e-05
-0.00010852
0.000967143
-0.000985056
0.000130627
-0.000155272
0.0010097
-0.000906641
0.000158078
-9.26495e-05
0.000841204
-0.000456699
4.86959e-05
0.000410764
-2.76392e-06
-0.00101448
-0.000100745
0.000120511
0.00099473
-0.000997986
-0.00011455
0.000100934
0.00101163
-0.000955918
-8.80594e-05
7.74421e-05
0.000966567
-0.000936333
-6.8345e-05
6.05884e-05
0.000944122
-0.000925565
-5.37865e-05
4.78103e-05
0.000931569
-0.000919162
-4.25094e-05
3.78103e-05
0.000923884
-0.000915108
-3.3611e-05
2.98622e-05
0.000918876
-0.000912435
-2.6592e-05
2.3563e-05
0.000915481
-0.000910207
-2.07224e-05
1.77441e-05
0.0009132
-0.000909021
-1.56997e-05
1.35627e-05
0.00091117
-0.000908083
-1.15075e-05
9.92529e-06
0.000909675
-0.000907174
-8.29387e-06
6.80456e-06
0.00090867
-0.000906519
-5.44702e-06
4.21135e-06
0.000907759
-0.000906168
-2.99394e-06
2.08423e-06
0.000907079
-0.000905485
-1.28553e-06
4.83052e-07
0.000906284
-0.000905148
3.13374e-07
-1.02089e-06
0.000905849
-0.000904744
1.42349e-06
-1.84322e-06
0.000905153
-0.000904463
2.25991e-06
-2.59848e-06
0.000904788
-0.000904004
2.53418e-06
-3.29631e-06
0.000904749
-0.000904665
3.6536e-06
-2.74478e-06
0.000903736
-0.000905866
4.95194e-06
-6.65476e-06
0.000907546
-0.000907172
6.1936e-06
-6.08451e-06
0.000907038
-0.000907022
5.54529e-06
-5.10419e-06
0.000906554
-0.00090714
4.69606e-06
-3.93289e-06
0.000906348
-0.000908275
3.25229e-06
-3.22389e-06
0.000908217
-0.000907237
2.52497e-06
-1.82218e-06
0.000906503
-0.000910424
1.21972e-06
-8.6368e-07
0.000910037
-0.000908311
6.73526e-07
-1.10065e-07
0.000907717
-0.000908504
-6.86247e-07
1.49119e-06
0.000907669
-0.000908637
-1.50712e-06
1.81575e-06
0.0009083
-0.000907743
-2.35478e-06
2.87614e-06
0.000907195
-0.000908006
-3.36567e-06
3.77832e-06
0.00090757
-0.000908391
-4.05721e-06
4.42168e-06
0.000908005
-0.00090878
-4.62211e-06
4.73324e-06
0.00090865
-0.000909203
-4.77178e-06
4.8176e-06
0.000909142
-0.000909757
-4.58372e-06
4.15535e-06
0.000910173
-0.000912837
-3.24144e-06
2.83061e-06
0.000913239
-0.000910752
-2.32678e-06
1.72492e-06
0.000911349
-0.0009115
-1.12471e-06
4.23631e-07
0.000912199
-0.000912195
3.83722e-07
-1.39723e-06
0.00091321
-0.000913058
2.42715e-06
-3.47067e-06
0.000914106
-0.00091382
4.74562e-06
-6.1479e-06
0.00091523
-0.000914831
7.80181e-06
-9.40245e-06
0.000916442
-0.000915962
1.13836e-05
-1.34425e-05
0.000918034
-0.000917324
1.57201e-05
-1.83218e-05
0.000919942
-0.00091919
2.10976e-05
-2.42617e-05
0.000922372
-0.000921937
2.76794e-05
-3.15783e-05
0.000925856
-0.000925923
3.58415e-05
-4.07184e-05
0.000930821
-0.000931931
4.62174e-05
-5.23123e-05
0.000938045
-0.000941237
5.93508e-05
-6.73467e-05
0.00094925
-0.000956544
7.6484e-05
-8.67482e-05
0.000966826
-0.000982877
9.81487e-05
-0.000112252
0.000996998
-0.00102476
0.00012711
-0.000131379
0.00102905
-0.000772131
0.000102813
-3.94852e-05
0.000708822
-0.000375677
2.89762e-05
0.000348321
-1.61927e-06
-0.000969542
-7.10951e-05
9.90162e-05
0.00094163
-0.00102206
-0.000104754
9.80207e-05
0.00102881
-0.000976504
-8.81784e-05
7.8691e-05
0.000986009
-0.000951587
-7.04753e-05
6.3305e-05
0.000958777
-0.000937607
-5.68373e-05
5.10779e-05
0.000943383
-0.000928689
-4.58264e-05
4.10372e-05
0.000933489
-0.000922811
-3.66525e-05
3.27385e-05
0.000926731
-0.000918632
-2.9051e-05
2.56613e-05
0.000922024
-0.000915707
-2.26444e-05
1.98716e-05
0.000918481
-0.000913539
-1.73244e-05
1.48795e-05
0.000915984
-0.000911779
-1.22231e-05
1.00438e-05
0.000913957
-0.000910361
-8.23601e-06
6.47808e-06
0.000912116
-0.000909376
-4.57015e-06
3.20038e-06
0.000910741
-0.000908043
-1.87212e-06
4.66137e-07
0.000909442
-0.000907216
7.02864e-07
-1.85601e-06
0.00090836
-0.000906558
2.77471e-06
-3.38136e-06
0.000907153
-0.000905846
4.3563e-06
-4.82206e-06
0.000906297
-0.000904767
5.05338e-06
-6.28097e-06
0.000905977
-0.000905217
6.76758e-06
-5.95361e-06
0.000904382
-0.000906023
8.43084e-06
-1.04432e-05
0.000908012
-0.000907025
9.97073e-06
-9.99806e-06
0.000907027
-0.000906579
9.49576e-06
-8.93352e-06
0.000905989
-0.000906079
8.43622e-06
-7.69665e-06
0.000905311
-0.000905638
6.89225e-06
-6.14448e-06
0.00090486
-0.000907528
5.32681e-06
-4.64059e-06
0.00090681
-0.0009057
3.59782e-06
-2.56358e-06
0.000904634
-0.000909557
1.65907e-06
-1.05005e-06
0.000908917
-0.000907025
3.76447e-07
3.70543e-07
0.000906246
-0.000906927
-1.3891e-06
2.26649e-06
0.00090602
-0.00090774
-2.86108e-06
3.56027e-06
0.000907013
-0.000906544
-4.37762e-06
5.1456e-06
0.00090575
-0.000907052
-5.85546e-06
6.45227e-06
0.000906432
-0.000907665
-7.00547e-06
7.40673e-06
0.000907243
-0.000908394
-7.71132e-06
7.8968e-06
0.000908192
-0.000909183
-7.97648e-06
7.93475e-06
0.000909211
-0.000911419
-7.58036e-06
6.50264e-06
0.000912487
-0.000912703
-5.70751e-06
5.68564e-06
0.000912719
-0.000911832
-5.13914e-06
4.47108e-06
0.000912499
-0.000913011
-3.57341e-06
2.65439e-06
0.000913933
-0.00091416
-1.59937e-06
3.19451e-07
0.000915447
-0.000915513
1.00383e-06
-2.45702e-06
0.000916978
-0.000916819
4.06607e-06
-5.91551e-06
0.000918683
-0.000918451
7.83709e-06
-9.91386e-06
0.000920546
-0.000920317
1.2288e-05
-1.47398e-05
0.00092279
-0.000922674
1.74201e-05
-2.03111e-05
0.00092559
-0.00092566
2.34744e-05
-2.70996e-05
0.000929312
-0.000929948
3.08481e-05
-3.49131e-05
0.000934042
-0.000935707
3.93782e-05
-4.43424e-05
0.000940701
-0.000944192
4.9794e-05
-5.57492e-05
0.000950174
-0.000956891
6.17898e-05
-6.80545e-05
0.000963179
-0.000975852
7.58589e-05
-8.4489e-05
0.000984503
-0.00100913
9.42438e-05
-0.00010416
0.00101907
-0.00102433
0.000109296
-9.81173e-05
0.00101318
-0.000654659
6.23921e-05
-1.75474e-05
0.000609852
-0.000326487
1.8818e-05
0.000308667
-1.00589e-06
-0.000913253
-5.07526e-05
7.83588e-05
0.000885643
-0.00103229
-9.07989e-05
9.01839e-05
0.0010329
-0.000994272
-8.36937e-05
7.61359e-05
0.00100182
-0.000965678
-6.91291e-05
6.2808e-05
0.000971995
-0.000949471
-5.70367e-05
5.2009e-05
0.000954493
-0.000938219
-4.6624e-05
4.15679e-05
0.000943266
-0.000930784
-3.67242e-05
3.26733e-05
0.000934822
-0.000925409
-2.88935e-05
2.53445e-05
0.000928943
-0.000921489
-2.21363e-05
1.91258e-05
0.000924484
-0.000918481
-1.63267e-05
1.37007e-05
0.000921091
-0.000916196
-1.13676e-05
9.08724e-06
0.00091846
-0.000914235
-7.18567e-06
5.01952e-06
0.000916385
-0.000912361
-2.91875e-06
1.05318e-06
0.00091421
-0.000910984
6.51185e-07
-2.22736e-06
0.000912542
-0.000909529
3.64368e-06
-4.83253e-06
0.000910699
-0.000908355
6.16305e-06
-7.16522e-06
0.000909336
-0.000906728
7.70161e-06
-9.31391e-06
0.000908318
-0.000906633
1.02485e-05
-9.65101e-06
0.000906012
-0.000907101
1.27277e-05
-1.48734e-05
0.000909221
-0.000907537
1.45091e-05
-1.48047e-05
0.000907805
-0.000906478
1.43218e-05
-1.40153e-05
0.000906143
-0.000905601
1.35465e-05
-1.2736e-05
0.000904759
-0.000904467
1.18602e-05
-1.09736e-05
0.000903549
-0.000903868
9.88695e-06
-8.87672e-06
0.000902825
-0.000905875
8.054e-06
-6.65668e-06
0.000904444
-0.000903374
5.19282e-06
-3.73168e-06
0.000901879
-0.000908113
2.34741e-06
-1.22066e-06
0.000906953
-0.000905116
1.58852e-07
1.21694e-06
0.000903708
-0.000904943
-2.56334e-06
4.05237e-06
0.000903423
-0.000906173
-5.51091e-06
6.09748e-06
0.000905557
-0.00090482
-7.07168e-06
8.13339e-06
0.000903731
-0.000905695
-9.12504e-06
9.98026e-06
0.000904816
-0.000906848
-1.06355e-05
1.13111e-05
0.000906151
-0.000907947
-1.17531e-05
1.21394e-05
0.000907544
-0.000909332
-1.21835e-05
1.18713e-05
0.000909631
-0.000914074
-1.06131e-05
9.40176e-06
0.000915276
-0.000912689
-9.92594e-06
9.79836e-06
0.000912812
-0.000913443
-9.019e-06
8.19286e-06
0.000914269
-0.000915055
-7.21216e-06
5.98809e-06
0.000916282
-0.00091675
-4.60756e-06
3.18662e-06
0.000918178
-0.000918572
-1.60622e-06
-1.15293e-07
0.000920303
-0.000920585
2.10411e-06
-4.1372e-06
0.000922631
-0.000922782
6.3458e-06
-8.81044e-06
0.000925262
-0.000925499
1.13634e-05
-1.40851e-05
0.000928238
-0.000928723
1.71173e-05
-2.02375e-05
0.000931862
-0.000932838
2.36949e-05
-2.7266e-05
0.000936428
-0.000938148
3.11009e-05
-3.5291e-05
0.000942358
-0.000945499
3.9677e-05
-4.37548e-05
0.000949596
-0.000954889
4.79692e-05
-5.33152e-05
0.000960253
-0.000969871
5.91599e-05
-6.54037e-05
0.000976129
-0.000992456
7.20108e-05
-7.92579e-05
0.000999714
-0.0010267
8.66955e-05
-9.21471e-05
0.00103216
-0.000997905
8.97868e-05
-7.20758e-05
0.000980207
-0.000573222
4.01015e-05
-9.98326e-06
0.00054313
-0.000293798
1.32568e-05
0.000281222
-6.92497e-07
-0.000859289
-3.74002e-05
6.19307e-05
0.000834751
-0.0010311
-7.69741e-05
8.05914e-05
0.00102748
-0.00100866
-7.72545e-05
7.13499e-05
0.00101456
-0.000977877
-6.52314e-05
5.94147e-05
0.000983684
-0.00095962
-5.42542e-05
4.93143e-05
0.000964549
-0.000947688
-4.46608e-05
4.03439e-05
0.000951994
-0.000939367
-3.62582e-05
3.23675e-05
0.000943247
-0.000933352
-2.86832e-05
2.53804e-05
0.000936643
-0.000927669
-2.12355e-05
1.72533e-05
0.000931639
-0.000923818
-1.30413e-05
1.02136e-05
0.000926632
-0.000920656
-7.55605e-06
5.03614e-06
0.000923161
-0.000918171
-2.78225e-06
6.59636e-07
0.000920277
-0.000916206
1.09665e-06
-2.62158e-06
0.000917714
-0.000914141
3.88108e-06
-5.6177e-06
0.000915858
-0.000912403
7.68975e-06
-9.32029e-06
0.000914012
-0.000910128
1.04679e-05
-1.25799e-05
0.000912217
-0.000909487
1.39902e-05
-1.37365e-05
0.00090921
-0.000909404
1.73609e-05
-1.89888e-05
0.000911006
-0.000909528
1.93889e-05
-2.04008e-05
0.000910513
-0.000907446
2.03871e-05
-2.03074e-05
0.000907338
-0.000905652
2.00143e-05
-1.94416e-05
0.000905049
-0.000903843
1.84545e-05
-1.76563e-05
0.000903013
-0.00090242
1.64894e-05
-1.51858e-05
0.000901084
-0.000902075
1.37066e-05
-1.236e-05
0.000900695
-0.00090213
1.1306e-05
-9.17868e-06
0.000899969
-0.000900052
7.0654e-06
-5.03223e-06
0.000897984
-0.000905551
3.07112e-06
-1.38031e-06
0.000903826
-0.000902096
-3.47651e-07
2.30079e-06
0.000900108
-0.000901043
-4.30198e-06
6.35965e-06
0.000898953
-0.000905794
-8.57848e-06
9.38155e-06
0.00090496
-0.000902592
-1.06773e-05
1.21239e-05
0.000901116
-0.000903798
-1.34772e-05
1.46456e-05
0.000902604
-0.000905456
-1.56572e-05
1.64519e-05
0.000904639
-0.000907284
-1.70663e-05
1.74772e-05
0.000906854
-0.000910612
-1.76993e-05
1.72263e-05
0.000911071
-0.000914907
-1.60694e-05
1.62062e-05
0.00091476
-0.000913284
-1.58525e-05
1.52152e-05
0.000913915
-0.000915171
-1.42943e-05
1.32017e-05
0.000916261
-0.000917505
-1.20312e-05
1.05983e-05
0.000918939
-0.000919815
-9.09387e-06
7.33506e-06
0.000921578
-0.000922253
-5.50897e-06
3.43405e-06
0.000924334
-0.000924793
-1.29468e-06
-1.09203e-06
0.000927188
-0.000927748
3.54439e-06
-6.14299e-06
0.000930357
-0.000931067
8.91268e-06
-1.19367e-05
0.000934102
-0.000935062
1.50371e-05
-1.84012e-05
0.000938437
-0.000940034
2.18503e-05
-2.55758e-05
0.00094377
-0.000946112
2.82767e-05
-3.16764e-05
0.000949522
-0.000953949
3.6105e-05
-4.05301e-05
0.000958383
-0.000965572
4.52902e-05
-5.00657e-05
0.000970356
-0.000981874
5.54187e-05
-6.08366e-05
0.000987299
-0.00100633
6.66886e-05
-7.26151e-05
0.00101226
-0.00103552
7.7936e-05
-7.9673e-05
0.00103725
-0.000961596
7.29593e-05
-5.41736e-05
0.000942811
-0.000518095
2.79073e-05
-6.79434e-06
0.000496991
-0.00027047
9.87339e-06
0.000261124
-5.16746e-07
-0.000812061
-2.8385e-05
4.93653e-05
0.000791097
-0.00102236
-6.45933e-05
7.07314e-05
0.00101623
-0.00101976
-6.97439e-05
6.54464e-05
0.00102407
-0.000989135
-6.01554e-05
5.48301e-05
0.000994464
-0.000969322
-4.99234e-05
4.52906e-05
0.000973957
-0.000956315
-4.08783e-05
3.66449e-05
0.000960551
-0.000946994
-3.2681e-05
2.87592e-05
0.00095092
-0.000940063
-2.51922e-05
2.15512e-05
0.000943709
-0.000934754
-1.83599e-05
1.50894e-05
0.000938028
-0.000930689
-1.21599e-05
9.35471e-06
0.000933495
-0.000927232
-6.68322e-06
4.03172e-06
0.000929883
-0.000922523
-3.92186e-07
-3.32322e-06
0.000926234
-0.00091957
6.88789e-06
-1.04206e-05
0.000923096
-0.000917012
1.3384e-05
-1.52895e-05
0.000918908
-0.000914957
1.67194e-05
-1.73924e-05
0.000915618
-0.000914838
1.67644e-05
-1.4482e-05
0.00091254
-0.000913232
2.23151e-05
-2.45773e-05
0.000915476
-0.000911667
2.55169e-05
-2.65366e-05
0.000912666
-0.000910518
2.63961e-05
-2.6349e-05
0.000910448
-0.000907419
2.72248e-05
-2.74664e-05
0.000907635
-0.000904372
2.70374e-05
-2.63816e-05
0.000903689
-0.000901886
2.53424e-05
-2.40323e-05
0.000900547
-0.000899544
2.2479e-05
-2.07327e-05
0.000897767
-0.000898944
1.87687e-05
-1.66731e-05
0.000896816
-0.000897863
1.46052e-05
-1.21593e-05
0.000895384
-0.000895615
9.48066e-06
-6.73168e-06
0.000892832
-0.000901766
4.0035e-06
-1.53017e-06
0.000899258
-0.000897778
-9.62835e-07
3.70241e-06
0.000895004
-0.000896648
-6.50113e-06
9.16774e-06
0.000893948
-0.000903373
-1.15793e-05
1.33879e-05
0.000901533
-0.000899379
-1.54857e-05
1.74824e-05
0.000897352
-0.000901234
-1.92833e-05
2.0853e-05
0.000899637
-0.000903704
-2.21804e-05
2.33367e-05
0.000902524
-0.00090636
-2.40469e-05
2.43963e-05
0.000905992
-0.000912207
-2.3412e-05
2.13876e-05
0.000914216
-0.00091425
-2.25869e-05
2.33393e-05
0.000913488
-0.000914613
-2.29702e-05
2.20867e-05
0.00091549
-0.000917444
-2.0987e-05
1.96894e-05
0.000918739
-0.000920381
-1.82954e-05
1.67217e-05
0.000921956
-0.000923257
-1.49645e-05
1.2843e-05
0.000925383
-0.000926332
-1.0853e-05
8.51277e-06
0.000928679
-0.000929596
-6.01029e-06
3.47412e-06
0.00093214
-0.000933168
-6.7916e-07
-2.14291e-06
0.000936
-0.000937112
5.21937e-06
-8.31842e-06
0.000940222
-0.000941858
1.13608e-05
-1.36022e-05
0.000944109
-0.00094638
1.69176e-05
-2.05634e-05
0.000950036
-0.000953484
2.43579e-05
-2.83901e-05
0.000957525
-0.000962798
3.24706e-05
-3.66859e-05
0.000967021
-0.000975154
4.11756e-05
-4.58132e-05
0.0009798
-0.000992552
5.06477e-05
-5.57844e-05
0.000997697
-0.00101777
6.1573e-05
-6.66946e-05
0.0010229
-0.00103761
7.01479e-05
-6.97922e-05
0.00103726
-0.000924417
6.17393e-05
-4.41338e-05
0.00090681
-0.000478726
2.23709e-05
-5.95822e-06
0.000462315
-0.000253053
7.50964e-06
0.000245967
-3.9596e-07
-0.000771988
-2.1985e-05
3.94749e-05
0.000754533
-0.00100898
-5.383e-05
6.13985e-05
0.00100143
-0.00102763
-6.25468e-05
5.95769e-05
0.00103063
-0.000999479
-5.50786e-05
5.01714e-05
0.0010044
-0.000978923
-4.55152e-05
4.14054e-05
0.000983049
-0.000964725
-3.69236e-05
3.26989e-05
0.000968966
-0.000954722
-2.84817e-05
2.43803e-05
0.000958842
-0.000947275
-2.00568e-05
1.64739e-05
0.000950877
-0.000941263
-1.29812e-05
9.58973e-06
0.000944672
-0.000936399
-6.39472e-06
3.3016e-06
0.000939508
-0.000932452
-4.09902e-07
-2.37642e-06
0.000935252
-0.000929278
4.8489e-06
-7.00399e-06
0.000931443
-0.000925463
9.96485e-06
-1.31094e-05
0.000928613
-0.000922002
1.49838e-05
-1.73336e-05
0.000924353
-0.000919905
2.08479e-05
-2.23562e-05
0.000921411
-0.000914327
2.24943e-05
-3.23118e-05
0.000924139
-0.000916064
3.27611e-05
-3.44568e-05
0.00091775
-0.000913152
3.50842e-05
-3.56861e-05
0.00091374
-0.00091054
3.60041e-05
-3.56543e-05
0.000910173
-0.000907942
3.47909e-05
-3.55913e-05
0.000908723
-0.000902724
3.60388e-05
-3.548e-05
0.000902143
-0.000899098
3.4163e-05
-3.24975e-05
0.000897408
-0.000895763
3.05117e-05
-2.81681e-05
0.000893393
-0.000894396
2.55447e-05
-2.27017e-05
0.000891525
-0.000892539
1.97867e-05
-1.64505e-05
0.000889173
-0.000889593
1.28111e-05
-9.01958e-06
0.00088577
-0.000896283
5.21196e-06
-1.6745e-06
0.000892713
-0.00089176
-1.89986e-06
5.69377e-06
0.000887933
-0.0008908
-9.53578e-06
1.32183e-05
0.000887084
-0.000899201
-1.65836e-05
1.95219e-05
0.00089623
-0.000895014
-2.21155e-05
2.47392e-05
0.00089236
-0.000897831
-2.71294e-05
2.91644e-05
0.000895768
-0.000901313
-3.08622e-05
3.22078e-05
0.000899943
-0.000905857
-3.2925e-05
3.19211e-05
0.000906841
-0.000915229
-3.01155e-05
3.1725e-05
0.000913605
-0.00091308
-3.30167e-05
3.27358e-05
0.000913352
-0.000916363
-3.19822e-05
3.07732e-05
0.000917568
-0.000920054
-2.95174e-05
2.79437e-05
0.000921629
-0.000923871
-2.6248e-05
2.43667e-05
0.000925758
-0.00092745
-2.2186e-05
1.98486e-05
0.000929797
-0.000931063
-1.74344e-05
1.47841e-05
0.000933725
-0.000934917
-1.20802e-05
9.15459e-06
0.000937856
-0.000939045
-6.18985e-06
3.64338e-06
0.000941606
-0.000942587
-1.38254e-06
-1.80287e-06
0.000945788
-0.000947645
5.31855e-06
-8.81683e-06
0.000951159
-0.00095381
1.25372e-05
-1.63403e-05
0.000957628
-0.000961534
2.04714e-05
-2.5016e-05
0.000966092
-0.000971385
2.93567e-05
-3.43371e-05
0.000976378
-0.00098444
3.99019e-05
-4.48104e-05
0.000989361
-0.00100324
4.91956e-05
-5.28971e-05
0.00100696
-0.00102793
5.58761e-05
-5.91091e-05
0.00103117
-0.00103422
6.07508e-05
-5.76548e-05
0.00103113
-0.00088925
4.74887e-05
-3.17075e-05
0.000873472
-0.000448813
1.49636e-05
-3.37039e-06
0.000437222
-0.000239812
5.76613e-06
0.000234382
-3.05007e-07
-0.000738517
-1.72256e-05
3.16844e-05
0.000724098
-0.000993462
-4.478e-05
5.28842e-05
0.000985386
-0.00103298
-5.521e-05
5.35596e-05
0.00103465
-0.00100913
-4.98198e-05
4.54115e-05
0.00101356
-0.000987431
-4.11692e-05
3.67393e-05
0.000991884
-0.000973066
-3.24392e-05
2.81521e-05
0.000977377
-0.000962752
-2.39425e-05
1.94954e-05
0.000967224
-0.000954838
-1.57483e-05
1.20725e-05
0.000958539
-0.000948579
-8.44685e-06
4.99652e-06
0.000952054
-0.000943457
-1.59991e-06
-1.6191e-06
0.000946699
-0.000938186
5.61105e-06
-9.51897e-06
0.000942114
-0.000933974
1.3556e-05
-1.79143e-05
0.000938349
-0.000930304
2.10316e-05
-2.35229e-05
0.000932809
-0.000928349
2.53833e-05
-2.55753e-05
0.000928551
-0.00092184
2.62665e-05
-3.71757e-05
0.000932756
-0.000923954
3.73145e-05
-4.01212e-05
0.000926763
-0.000920069
4.24642e-05
-4.40584e-05
0.000921662
-0.000914903
4.56959e-05
-4.7159e-05
0.00091636
-0.000910005
4.83815e-05
-4.90676e-05
0.000910682
-0.000907741
4.87655e-05
-4.77696e-05
0.000906732
-0.000901882
4.76735e-05
-4.75343e-05
0.000901727
-0.000895621
4.61269e-05
-4.39308e-05
0.000893407
-0.000890754
4.13413e-05
-3.83018e-05
0.000887695
-0.000888243
3.48325e-05
-3.09919e-05
0.000884381
-0.00088527
2.69148e-05
-2.24102e-05
0.000880742
-0.000881307
1.74063e-05
-1.21924e-05
0.000876067
-0.000888459
6.89072e-06
-1.82045e-06
0.00088336
-0.000883427
-3.27762e-06
8.59675e-06
0.000878077
-0.000882794
-1.38652e-05
1.88675e-05
0.000877759
-0.000892714
-2.34172e-05
2.75852e-05
0.000888513
-0.00088965
-3.149e-05
3.4987e-05
0.000886121
-0.000893435
-3.78024e-05
4.03882e-05
0.000890819
-0.000898633
-4.24898e-05
4.38231e-05
0.000897274
-0.000908169
-4.34394e-05
4.21286e-05
0.000909461
-0.00091156
-4.3901e-05
4.51462e-05
0.000910303
-0.000913939
-4.50352e-05
4.42948e-05
0.000914675
-0.000918726
-4.3117e-05
4.17522e-05
0.000920093
-0.000923384
-4.00076e-05
3.80251e-05
0.000925376
-0.000927936
-3.5807e-05
3.35002e-05
0.000930257
-0.000932231
-3.08908e-05
2.82376e-05
0.000934903
-0.000936563
-2.53099e-05
2.23713e-05
0.000939522
-0.000940637
-2.0033e-05
1.74962e-05
0.000943196
-0.000944296
-1.41011e-05
1.06324e-05
0.000947788
-0.000949405
-6.84757e-06
2.58278e-06
0.000953694
-0.00095506
1.57474e-06
-6.21188e-06
0.000959721
-0.000961705
1.15872e-05
-1.59511e-05
0.000966091
-0.00097164
1.89983e-05
-2.09964e-05
0.000973658
-0.000979598
2.41323e-05
-2.78482e-05
0.000983332
-0.000992836
3.1424e-05
-3.54986e-05
0.000996928
-0.00101129
3.97894e-05
-4.39893e-05
0.0010155
-0.00103455
4.80874e-05
-5.11745e-05
0.00103766
-0.00102768
5.17243e-05
-4.77248e-05
0.0010237
-0.000858803
3.81391e-05
-2.46279e-05
0.0008453
-0.000427216
1.12587e-05
-2.46024e-06
0.000418425
-0.000229666
4.45044e-06
0.000225496
-2.3519e-07
-0.000710699
-1.35813e-05
2.56534e-05
0.000698681
-0.000977401
-3.71489e-05
4.51255e-05
0.000969456
-0.00103593
-4.83441e-05
4.76391e-05
0.00103666
-0.00101814
-4.45886e-05
4.07777e-05
0.00102197
-0.000996291
-3.63687e-05
3.21146e-05
0.00100057
-0.000981354
-2.77215e-05
2.34212e-05
0.000985681
-0.000970865
-1.88425e-05
1.49685e-05
0.000974766
-0.000962729
-1.11152e-05
7.40697e-06
0.000966464
-0.000956366
-3.60606e-06
5.20789e-08
0.000959946
-0.00095017
3.5918e-06
-7.83017e-06
0.000954433
-0.000945265
1.21446e-05
-1.67248e-05
0.000949868
-0.000940952
2.15758e-05
-2.52092e-05
0.000944606
-0.000937318
2.82602e-05
-3.06121e-05
0.000939688
-0.000933743
3.13254e-05
-3.25947e-05
0.000935027
-0.000933806
4.5411e-05
-4.78672e-05
0.000936274
-0.000929134
5.09253e-05
-5.26735e-05
0.00093089
-0.000924264
5.44309e-05
-5.65136e-05
0.000926351
-0.000917856
5.90213e-05
-6.1139e-05
0.000919973
-0.000911559
6.25738e-05
-6.35107e-05
0.000912493
-0.000905767
6.39773e-05
-6.33761e-05
0.000905158
-0.000902238
6.17292e-05
-6.13851e-05
0.000901884
-0.000891369
6.1271e-05
-5.95158e-05
0.000889603
-0.000884174
5.64798e-05
-5.26853e-05
0.000880367
-0.000879655
4.79849e-05
-4.16917e-05
0.000873348
-0.000876018
3.39634e-05
-2.9469e-05
0.000871509
-0.000869923
2.38218e-05
-1.67506e-05
0.000862834
-0.000877271
9.30232e-06
-1.98059e-06
0.000869927
-0.000871783
-5.37197e-06
1.28374e-05
0.000864289
-0.00087217
-1.99456e-05
2.53837e-05
0.0008667
-0.000882864
-2.94337e-05
3.74238e-05
0.000874838
-0.000882026
-4.40668e-05
4.89036e-05
0.000877153
-0.000888078
-5.28498e-05
5.57653e-05
0.000885129
-0.000896584
-5.74147e-05
5.64461e-05
0.000897526
-0.000908915
-5.53735e-05
5.8669e-05
0.000905601
-0.000909579
-6.07155e-05
6.08165e-05
0.00090947
-0.000915627
-5.9878e-05
5.86329e-05
0.000916875
-0.000921806
-5.69062e-05
5.48705e-05
0.000923853
-0.000927524
-5.2523e-05
5.00477e-05
0.000930019
-0.000932833
-4.73232e-05
4.43287e-05
0.000935853
-0.000937921
-4.13504e-05
3.87983e-05
0.000940502
-0.00094185
-3.57679e-05
3.19193e-05
0.00094573
-0.000946891
-2.71285e-05
2.21694e-05
0.000951883
-0.000951865
-1.62769e-05
1.18906e-05
0.000956284
-0.000959386
-9.09061e-06
7.54262e-06
0.000960966
-0.000962481
-4.58355e-06
9.91721e-07
0.000966104
-0.00096902
2.32746e-06
-6.07125e-06
0.000972792
-0.000977082
9.96868e-06
-1.39758e-05
0.000981115
-0.000987385
1.80263e-05
-2.20896e-05
0.00099147
-0.00100099
2.6207e-05
-3.03532e-05
0.00100515
-0.00101971
3.44325e-05
-3.8542e-05
0.00102384
-0.00104027
4.22263e-05
-4.4615e-05
0.00104268
-0.0010193
4.42014e-05
-3.97392e-05
0.00101486
-0.000832742
3.07159e-05
-1.91602e-05
0.000821197
-0.000410678
8.51483e-06
-1.73559e-06
0.000403911
-0.000221828
3.41655e-06
0.000218612
-1.71206e-07
-0.000687618
-1.07688e-05
2.08533e-05
0.000677576