/*--------------------------------*- C++ -*----------------------------------*\
  =========                 |
  \\      /  F ield         | OpenFOAM: The Open Source CFD Toolbox
   \\    /   O peration     | Website:  https://openfoam.org
    \\  /    A nd           | Version:  7
     \\/     M anipulation  |
\*---------------------------------------------------------------------------*/
FoamFile
{
    version     2.0;
    format      ascii;
    class       volVectorField;
    location    "15";
    object      U;
}
// * * * * * * * * * * * * * * * * * * * * * * * * * * * * * * * * * * * * * //

dimensions      [0 1 -1 0 0 0 0];

internalField   nonuniform List<vector> 
17475
(
(1.01628 0.206582 -1.60835e-20)
(0.995494 0.0218583 -2.54045e-20)
(0.999533 0.00952545 0)
(0.999867 0.00480832 0)
(0.999955 0.00302527 0)
(0.999981 0.00208039 0)
(0.99999 0.0014943 0)
(0.999994 0.00109648 0)
(0.999996 0.000809276 -5.18551e-20)
(0.999997 0.000592484 0)
(0.999997 0.000423103 0)
(0.999997 0.000287684 0)
(0.999998 0.000177727 0)
(0.999998 8.78227e-05 0)
(0.999998 1.4347e-05 0)
(0.999998 -4.49682e-05 0)
(0.999998 -9.18031e-05 0)
(0.999998 -0.000127177 0)
(0.999998 -0.000151996 0)
(0.999998 -0.00016682 0)
(0.999999 -0.000172299 -1.9982e-19)
(0.999999 -0.000169082 5.03252e-22)
(0.999999 -0.000157976 0)
(0.999999 -0.000139598 -6.32556e-21)
(0.999999 -0.000115441 0)
(1 -8.56587e-05 -1.2687e-20)
(1 -5.31389e-05 0)
(1 -1.86229e-05 0)
(1 1.62584e-05 -1.59187e-21)
(1 4.9961e-05 5.08761e-20)
(1 8.09147e-05 5.0041e-20)
(1 0.000107671 0)
(1 0.000128909 0)
(1 0.000143469 -5.03029e-20)
(1 0.000150361 -5.02037e-20)
(1 0.000148724 0)
(1 0.000137841 -3.8866e-22)
(1 0.000117011 0)
(1 8.55448e-05 4.9343e-20)
(1 4.24148e-05 2.46203e-20)
(1 -1.30131e-05 -2.45802e-20)
(0.999999 -8.2046e-05 0)
(0.999999 -0.0001668 -2.46514e-20)
(0.999999 -0.000270505 0)
(0.999998 -0.000398038 -1.2459e-20)
(0.999997 -0.000556836 0)
(0.999996 -0.000758417 2.57351e-20)
(0.999994 -0.00102115 0)
(0.999991 -0.00137504 0)
(0.999985 -0.00187094 0)
(0.999975 -0.00259734 0)
(0.999962 -0.00369607 -1.5891e-20)
(0.999914 -0.00534988 3.54423e-20)
(0.999048 -0.00291064 3.90796e-20)
(1.0286 -0.0897673 -3.88551e-20)
(0.871545 0.0823444 1.87264e-20)
(1.0988 0.096865 0)
(1.03441 0.0586734 0)
(1.01481 0.0371343 0)
(1.00778 0.0250822 -1.34719e-19)
(1.00469 0.0177096 -1.29081e-19)
(1.00312 0.0128723 1.22552e-19)
(1.00221 0.00948628 0)
(1.00165 0.00698799 0)
(1.00128 0.00506938 0)
(1.00102 0.00355092 0)
(1.00082 0.00232371 0)
(1.00067 0.00131866 0)
(1.00055 0.000490995 0)
(1.00045 -0.000188642 0)
(1.00035 -0.000739925 0)
(1.00027 -0.00117619 0)
(1.00019 -0.00150643 0)
(1.00012 -0.00173742 0)
(1.00005 -0.00187449 0)
(0.999986 -0.00192283 0)
(0.999924 -0.00188801 0)
(0.999869 -0.00177572 2.39873e-19)
(0.99982 -0.00159586 -6.00248e-20)
(0.999779 -0.00135463 -1.20915e-19)
(0.999748 -0.00106563 1.26987e-22)
(0.999727 -0.000742678 -1.52159e-20)
(0.999717 -0.000400045 0)
(0.999718 -5.16502e-05 -7.63668e-21)
(0.99973 0.000286768 7.6381e-21)
(0.999754 0.000600667 -1.22189e-19)
(0.999788 0.000875962 1.2392e-19)
(0.999831 0.00110018 0)
(0.999882 0.00126222 -2.42326e-19)
(0.99994 0.00135256 1.8857e-21)
(1 0.00136309 2.40217e-19)
(1.00007 0.00128688 0)
(1.00015 0.00111759 1.1892e-19)
(1.00023 0.000848844 0)
(1.00031 0.000472418 -1.18207e-19)
(1.00041 -2.03918e-05 1.17937e-19)
(1.00051 -0.000642416 0)
(1.00064 -0.00141259 0)
(1.00079 -0.00235925 0)
(1.00098 -0.00352485 9.71482e-23)
(1.00123 -0.00497417 6.04368e-20)
(1.00157 -0.00680699 -6.15196e-20)
(1.00207 -0.0091815 -3.13104e-20)
(1.00283 -0.0123553 0)
(1.00404 -0.0167643 0)
(1.00606 -0.023183 0)
(1.00962 -0.033072 -3.54151e-20)
(1.01618 -0.0498713 3.68247e-20)
(1.02795 -0.0724543 2.34788e-21)
(1.07031 -0.177481 2.78553e-21)
(0.609451 0.0214445 9.97971e-21)
(1.14021 0.106879 -1.42107e-20)
(1.07916 0.0760132 -5.90198e-20)
(1.04133 0.0543822 0)
(1.02473 0.0401218 0)
(1.01608 0.0299722 -1.1853e-19)
(1.01114 0.0225555 0)
(1.00813 0.0169824 0)
(1.00618 0.012678 0)
(1.00485 0.00926945 2.27721e-19)
(1.00389 0.0065146 0)
(1.00317 0.00425397 0)
(1.00261 0.00238138 0)
(1.00215 0.000826203 0)
(1.00175 -0.000459343 0)
(1.0014 -0.00150753 -2.26972e-19)
(1.00108 -0.00233958 0)
(1.00078 -0.00297055 0)
(1.0005 -0.00341096 0)
(1.00023 -0.00366958 0)
(0.999974 -0.00375493 4.71164e-19)
(0.999736 -0.003676 0)
(0.999519 -0.00344598 1.79424e-19)
(0.999329 -0.00307625 -1.20492e-19)
(0.99917 -0.00258992 0)
(0.999047 -0.00200866 -3.04673e-20)
(0.998966 -0.00135871 0)
(0.998928 -0.000669418 3.82881e-20)
(0.998934 3.02872e-05 2.30238e-20)
(0.998984 0.000708261 0)
(0.999078 0.00133592 -1.07354e-19)
(0.999211 0.00188462 3.827e-21)
(0.999379 0.00232993 -1.90851e-21)
(0.999578 0.00265037 -1.21404e-19)
(0.999803 0.00282775 1.20779e-19)
(1.00005 0.00284715 0)
(1.00031 0.00269626 2.31207e-19)
(1.0006 0.00236433 -2.37078e-19)
(1.0009 0.00184066 2.5155e-19)
(1.00123 0.00111218 0)
(1.00158 0.00016439 2.9463e-20)
(1.00198 -0.00102437 -2.57901e-22)
(1.00245 -0.00248551 1.16953e-19)
(1.00301 -0.00426557 -3.89862e-22)
(1.00371 -0.00643377 -5.85987e-20)
(1.00464 -0.00909251 0)
(1.0059 -0.0123959 0)
(1.0077 -0.0165773 2.98581e-20)
(1.01038 -0.0219973 -3.08218e-20)
(1.01455 -0.0292218 -4.89035e-22)
(1.02135 -0.0391537 9.46333e-20)
(1.03301 -0.0531963 -6.48251e-20)
(1.05396 -0.0741786 6.33548e-20)
(1.09957 -0.104722 0)
(0.96352 -0.118903 3.31178e-20)
(0.478114 0.00899357 0)
(1.11633 0.0901057 0)
(1.1155 0.0802472 2.6354e-20)
(1.06639 0.0609305 0)
(1.04284 0.0472083 1.10176e-19)
(1.0297 0.0367175 0)
(1.0216 0.0284804 0)
(1.01632 0.0218936 0)
(1.01273 0.016546 0)
(1.01017 0.0121442 0)
(1.00828 0.00848014 0)
(1.00683 0.00540323 0)
(1.00567 0.00280928 2.20941e-19)
(1.0047 0.000624575 0)
(1.00385 -0.0012013 0)
(1.0031 -0.00270192 0)
(1.0024 -0.0038998 0)
(1.00175 -0.00480936 0)
(1.00112 -0.005441 0)
(1.00052 -0.00580314 -2.31624e-19)
(0.999951 -0.00590379 0)
(0.999417 -0.00575597 0)
(0.998928 -0.00537035 -1.19711e-19)
(0.998498 -0.00477299 0)
(0.998138 -0.00399258 -1.82775e-19)
(0.997861 -0.0030638 3.0441e-20)
(0.997676 -0.00202721 -1.22959e-19)
(0.997591 -0.000928332 2.40909e-22)
(0.997607 0.000187607 6.18642e-20)
(0.997725 0.00126622 4.63234e-20)
(0.99794 0.00226615 1.23347e-19)
(0.998245 0.00313964 3.83467e-21)
(0.998628 0.00384992 0)
(0.999078 0.00436499 -3.54758e-22)
(0.999584 0.00465861 0)
(1.00013 0.00471034 -1.12083e-19)
(1.00072 0.00450456 -1.18727e-19)
(1.00135 0.00402883 1.18075e-19)
(1.00201 0.00327151 2.34587e-19)
(1.00272 0.00221953 9.50769e-20)
(1.00348 0.000858047 -2.91189e-20)
(1.00433 -0.000835945 -5.77634e-20)
(1.0053 -0.00289614 0)
(1.00647 -0.0053726 0)
(1.0079 -0.00833837 -5.72608e-20)
(1.00975 -0.0118989 5.7215e-20)
(1.01222 -0.0162051 1.43212e-19)
(1.01565 -0.0214724 2.90353e-20)
(1.02059 -0.0280065 -1.58792e-22)
(1.02797 -0.0362389 -2.85794e-20)
(1.03942 -0.0467766 1.14769e-19)
(1.05781 -0.060387 -8.53893e-20)
(1.0898 -0.0788933 8.04047e-20)
(1.13301 -0.100503 5.12372e-20)
(0.812967 -0.0601862 -1.47558e-20)
(0.400084 0.00484783 0)
(1.06073 0.068503 -2.38558e-20)
(1.1386 0.0764119 4.67427e-20)
(1.08881 0.0614326 4.92201e-20)
(1.0598 0.049178 5.0597e-20)
(1.04329 0.0393403 1.02957e-19)
(1.0327 0.0311719 -1.03714e-19)
(1.0255 0.0243003 -1.0461e-19)
(1.02039 0.0184727 0)
(1.01663 0.0134971 -2.11277e-19)
(1.01376 0.0092262 -4.24898e-19)
(1.01149 0.00554924 -2.13814e-19)
(1.00963 0.00238537 -2.15442e-19)
(1.00805 -0.00032432 0)
(1.00665 -0.00261954 0)
(1.00538 -0.00452588 0)
(1.00419 -0.00605816 -4.50127e-19)
(1.00305 -0.00722464 -2.62321e-21)
(1.00195 -0.0080292 -4.60399e-19)
(1.00089 -0.00847398 -2.31633e-19)
(0.99987 -0.00856615 -5.85612e-20)
(0.998907 -0.00830818 1.18427e-19)
(0.998022 -0.00772263 -1.19833e-19)
(0.99724 -0.00683702 1.21104e-19)
(0.996583 -0.0056896 0)
(0.996075 -0.00432722 -6.21387e-20)
(0.995737 -0.00280815 1.24285e-19)
(0.995581 -0.00119861 0)
(0.995617 0.000436086 -3.12703e-20)
(0.995838 0.00201417 -1.56519e-20)
(0.996237 0.00347764 -1.24242e-19)
(0.996798 0.00475623 1.16092e-20)
(0.9975 0.00579892 0)
(0.99832 0.00656286 1.29635e-19)
(0.999233 0.00701475 0)
(1.00022 0.00713059 0)
(1.00127 0.00689475 -2.3606e-19)
(1.00237 0.0062981 -5.74853e-20)
(1.00351 0.00533002 1.23363e-19)
(1.00472 0.00398595 1.08402e-19)
(1.00601 0.0022565 -1.28801e-19)
(1.00743 0.000125808 -1.13867e-19)
(1.00902 -0.00243214 -1.40959e-19)
(1.01089 -0.0054567 8.40393e-20)
(1.01315 -0.00900684 1.11189e-19)
(1.01599 -0.0131658 -2.73841e-20)
(1.01969 -0.0180474 0)
(1.02466 -0.0238044 -5.45969e-20)
(1.03158 -0.0306348 -5.41891e-20)
(1.04151 -0.0387936 -2.72223e-20)
(1.05622 -0.048591 -2.58633e-20)
(1.07893 -0.0603492 -7.72257e-20)
(1.11663 -0.0751012 -4.78489e-20)
(1.12247 -0.0827531 0)
(0.693388 -0.0290442 7.81245e-20)
(0.351676 0.00315579 0)
(0.998248 0.0509515 0)
(1.14689 0.0689826 -8.41157e-20)
(1.10791 0.0589407 -8.88987e-20)
(1.07512 0.0481412 0)
(1.0561 0.0391817 0)
(1.04366 0.0314378 9.68821e-20)
(1.03495 0.0246477 0)
(1.02858 0.0186711 0)
(1.02375 0.0133973 0)
(1.01997 0.0087379 -2.04969e-19)
(1.0169 0.00462558 -2.07532e-19)
(1.01432 0.0010101 0)
(1.01208 -0.0021438 0)
(1.01006 -0.00485586 -2.56304e-21)
(1.00818 -0.00713652 0)
(1.00639 -0.00898685 8.8407e-19)
(1.00466 -0.0104012 9.0016e-19)
(1.00296 -0.0113701 -4.56888e-19)
(1.00129 -0.0118884 2.29264e-19)
(0.999677 -0.0119415 2.91926e-19)
(0.998137 -0.0115381 -5.95657e-20)
(0.99671 -0.010694 3.61609e-19)
(0.995437 -0.00944026 -6.06623e-20)
(0.994362 -0.00782349 2.94023e-22)
(0.993527 -0.00590447 -1.24484e-19)
(0.99297 -0.00376436 1.5821e-19)
(0.992716 -0.00149543 1.2601e-19)
(0.992778 0.000809188 -5.09333e-22)
(0.99315 0.00303157 6.32347e-20)
(0.993812 0.00509047 6.28871e-20)
(0.994739 0.0068879 0)
(0.99589 0.00835497 -1.11784e-19)
(0.997221 0.00943813 0)
(0.998691 0.0100979 0)
(1.00026 0.0103104 1.49398e-19)
(1.00191 0.0100663 -1.18892e-19)
(1.00362 0.00936111 0)
(1.00538 0.00819434 7.19471e-21)
(1.0072 0.00657641 0)
(1.00911 0.00450993 0)
(1.01117 0.0019939 -1.25642e-19)
(1.01344 -0.000982071 1.38382e-20)
(1.01604 -0.00443826 1.94693e-22)
(1.01912 -0.0084098 -1.33097e-20)
(1.0229 -0.0129471 -1.32773e-19)
(1.02768 -0.0181188 -1.29576e-20)
(1.03394 -0.0240122 1.16181e-19)
(1.04238 -0.0307325 -1.01886e-19)
(1.05411 -0.0383981 0)
(1.07096 -0.0471573 4.78185e-20)
(1.09643 -0.057181 9.46336e-22)
(1.1334 -0.0684108 -4.44001e-20)
(1.08879 -0.0650277 -6.67972e-20)
(0.61265 -0.0164999 0)
(0.318778 0.00228649 8.33578e-21)
(0.940183 0.0382747 -2.14779e-20)
(1.14344 0.060415 3.87585e-20)
(1.12337 0.0550449 0)
(1.08892 0.045547 0)
(1.06796 0.0373314 -8.76566e-20)
(1.05418 0.0300483 0)
(1.04434 0.0234602 -1.85916e-19)
(1.03698 0.0174754 -1.89642e-19)
(1.03127 0.0120398 0)
(1.02669 0.00710972 -9.85836e-20)
(1.02289 0.00265899 2.00728e-19)
(1.01963 -0.00133856 -4.0748e-19)
(1.01672 -0.0048927 0)
(1.01404 -0.00800211 0)
(1.0115 -0.0106572 0)
(1.00902 -0.0128373 -3.37602e-21)
(1.00658 -0.0145161 0)
(1.00415 -0.0156711 0)
(1.00172 -0.0162619 2.2791e-19)
(0.999337 -0.01627 4.63889e-22)
(0.997038 -0.0156873 0)
(0.994882 -0.014521 0)
(0.992939 -0.0128002 3.71203e-19)
(0.991284 -0.0105781 2.51142e-19)
(0.989991 -0.00793008 3.18535e-20)
(0.989126 -0.00497782 0)
(0.988731 -0.00183823 2.58365e-19)
(0.988832 0.00135348 9.68803e-20)
(0.989419 0.00442284 -3.09523e-22)
(0.990456 0.00725985 0)
(0.991894 0.00973312 0)
(0.993663 0.0117431 7.05554e-21)
(0.995688 0.0132282 0)
(0.997898 0.0141463 0)
(1.00023 0.0144791 4.86962e-23)
(1.00265 0.0142323 -2.32458e-19)
(1.00511 0.0134068 -1.16344e-19)
(1.00759 0.0120289 1.13554e-19)
(1.01012 0.0101269 6.93275e-21)
(1.01272 0.00772394 -1.09398e-19)
(1.01547 0.00483869 7.20459e-22)
(1.01843 0.00148287 6.54662e-22)
(1.02175 -0.00234104 1.32608e-20)
(1.02558 -0.00664138 -9.06669e-20)
(1.03017 -0.0114369 0)
(1.03586 -0.0167563 -1.12656e-19)
(1.0431 -0.0226317 0)
(1.05264 -0.0291104 -4.77375e-20)
(1.06559 -0.0362457 0)
(1.08386 -0.0441243 4.51912e-20)
(1.111 -0.0528642 -1.90604e-22)
(1.14106 -0.0608858 -2.01538e-20)
(1.04782 -0.0507685 -6.35578e-20)
(0.557562 -0.0110937 3.10794e-20)
(0.294931 0.00169416 0)
(0.889972 0.0293106 -2.0792e-20)
(1.13233 0.0519823 0)
(1.13518 0.050466 0)
(1.10152 0.042196 3.94136e-20)
(1.07904 0.0345212 8.78525e-22)
(1.06424 0.0275984 0)
(1.05359 0.0211916 -8.68961e-20)
(1.04549 0.0152258 -1.79725e-19)
(1.03909 0.00967153 0)
(1.03385 0.00451318 0)
(1.02941 -0.000254422 0)
(1.02551 -0.00462643 0)
(1.02196 -0.00858885 -2.98539e-19)
(1.01862 -0.0121197 -1.00955e-19)
(1.01537 -0.0151849 0)
(1.01214 -0.0177435 1.32072e-20)
(1.00888 -0.0197538 3.22426e-19)
(1.00556 -0.0211423 -9.08163e-22)
(1.0022 -0.0218545 -1.13674e-19)
(0.998842 -0.0218372 0)
(0.99555 -0.0210616 1.19181e-19)
(0.992418 -0.0195129 -2.53753e-22)
(0.989559 -0.0172099 1.27031e-19)
(0.987096 -0.0142097 0)
(0.985155 -0.0106043 -6.48728e-20)
(0.983849 -0.00656422 -6.61591e-20)
(0.983254 -0.00225199 1.3406e-19)
(0.983412 0.00213645 6.71312e-20)
(0.984308 0.00634408 -1.31982e-19)
(0.98588 0.0102153 0)
(0.988038 0.0135656 -1.6192e-20)
(0.99066 0.016264 -1.2692e-19)
(0.993624 0.0182403 1.55368e-20)
(0.996812 0.0194554 1.16867e-21)
(1.00013 0.0199105 2.33196e-19)
(1.00351 0.0196292 1.17004e-19)
(1.00687 0.0186338 1.13993e-19)
(1.0102 0.0169898 -1.10464e-19)
(1.01352 0.014751 0)
(1.01688 0.0119675 1.12919e-19)
(1.02032 0.00868418 0)
(1.02397 0.0049366 0)
(1.02795 0.000752019 -1.01993e-19)
(1.03244 -0.00385382 0)
(1.03771 -0.00887108 4.80524e-20)
(1.04409 -0.0142944 9.5029e-20)
(1.05207 -0.0201352 2.37018e-20)
(1.06238 -0.026404 -9.00738e-20)
(1.07617 -0.0331269 0)
(1.09543 -0.0403788 4.25982e-20)
(1.12313 -0.0481647 0)
(1.14157 -0.053328 -1.85492e-20)
(1.00693 -0.0398002 4.03669e-20)
(0.517072 -0.00812254 0)
(0.277029 0.00123885 0)
(0.8477 0.02283 -2.02296e-20)
(1.11697 0.0442252 -3.4389e-20)
(1.14362 0.045572 3.48308e-20)
(1.11315 0.0384947 -3.61823e-20)
(1.08959 0.0312048 -7.58462e-20)
(1.07399 0.0245102 0)
(1.06274 0.0182064 0)
(1.05411 0.012215 0)
(1.0472 0.00651893 0)
(1.04145 0.00111589 1.77692e-19)
(1.03648 -0.00398517 0)
(1.03203 -0.00876312 -3.72279e-19)
(1.02788 -0.0131879 0)
(1.02388 -0.0172146 0)
(1.01991 -0.0207897 3.75568e-19)
(1.01587 -0.0238457 3.05909e-19)
(1.01168 -0.0262903 -1.07393e-19)
(1.00733 -0.0280321 -1.08424e-19)
(1.00283 -0.028972 1.12181e-19)
(0.998239 -0.0290074 4.65782e-19)
(0.993647 -0.0280644 2.41473e-19)
(0.9892 -0.0260944 -1.23304e-19)
(0.985072 -0.0230864 0)
(0.981464 -0.01909 1.87114e-21)
(0.978588 -0.0142148 6.67822e-20)
(0.976638 -0.00869857 -6.70974e-20)
(0.975748 -0.00277541 -1.73587e-19)
(0.975991 0.00326183 5.35416e-22)
(0.977341 0.00902578 0)
(0.979692 0.0142855 -6.7126e-20)
(0.982884 0.0187809 -1.31143e-19)
(0.986703 0.0223398 1.27825e-19)
(0.99095 0.0248898 -1.24308e-19)
(0.995438 0.0264099 -1.52576e-19)
(1.00003 0.0269437 -2.35546e-19)
(1.00458 0.0265296 5.73292e-20)
(1.00902 0.0252551 2.77896e-20)
(1.01333 0.023229 0)
(1.01753 0.0205425 0)
(1.02166 0.0172806 -6.49786e-21)
(1.02581 0.013518 2.02084e-19)
(1.03009 0.00931642 9.95122e-20)
(1.03466 0.00472484 0)
(1.03971 -0.000213614 9.51363e-20)
(1.04551 -0.00547412 2.26956e-20)
(1.05241 -0.0110402 -2.30158e-20)
(1.06091 -0.0169023 5.49164e-21)
(1.07176 -0.0230586 8.33912e-20)
(1.08616 -0.0295289 3.25934e-19)
(1.10614 -0.0363776 1.5725e-19)
(1.13313 -0.0433865 -3.67147e-20)
(1.13696 -0.0461823 -3.66451e-20)
(0.969729 -0.0315277 -5.98924e-20)
(0.487071 -0.00606415 1.19619e-19)
(0.26338 0.000901914 0)
(0.812489 0.0179802 -3.94138e-20)
(1.09977 0.037325 3.27947e-20)
(1.14911 0.0405979 -3.21502e-20)
(1.12392 0.0346532 6.74756e-20)
(1.09983 0.0276588 7.15307e-20)
(1.08359 0.0210782 -1.47846e-19)
(1.07191 0.0147874 8.35386e-22)
(1.06292 0.00870613 -7.87034e-20)
(1.05565 0.00281132 -1.6424e-19)
(1.04953 -0.00289411 -1.67443e-19)
(1.04416 -0.00839181 0)
(1.03926 -0.0136527 1.75152e-19)
(1.0346 -0.0186315 0)
(1.03001 -0.0232687 -3.84164e-19)
(1.02533 -0.027497 -4.65558e-20)
(1.02041 -0.0312228 -1.97412e-19)
(1.01521 -0.034309 3.08143e-19)
(1.00968 -0.0366152 -4.232e-19)
(1.00382 -0.0379876 0)
(0.99768 -0.0382556 2.30432e-19)
(0.991378 -0.0372505 -3.59221e-19)
(0.985138 -0.0348751 1.24645e-19)
(0.979222 -0.0310513 0)
(0.973952 -0.0257945 -1.34228e-19)
(0.969682 -0.0192199 6.80014e-20)
(0.966757 -0.0116631 1.44128e-19)
(0.965415 -0.00347254 1.43046e-19)
(0.965792 0.00489484 -1.44503e-19)
(0.967836 0.0128327 0)
(0.97136 0.0199874 0)
(0.976075 0.0259753 1.68155e-19)
(0.981612 0.030584 1.80091e-21)
(0.987638 0.0337542 -2.20907e-19)
(0.993874 0.0355254 -3.64679e-19)
(1.00009 0.0359914 5.85392e-20)
(1.00609 0.0352511 -2.81753e-20)
(1.01181 0.0334967 0)
(1.01721 0.0308881 0)
(1.02234 0.0275704 9.00696e-20)
(1.02726 0.0236694 1.10996e-19)
(1.03207 0.0192921 -1.06364e-20)
(1.03692 0.0145291 0)
(1.04198 0.00944864 -9.19467e-20)
(1.04747 0.00410055 6.617e-20)
(1.05367 -0.00147914 1.73605e-19)
(1.06095 -0.00726484 0)
(1.0698 -0.0132319 0)
(1.08101 -0.019372 4.94455e-21)
(1.0958 -0.0257143 -1.14395e-19)
(1.11621 -0.0323223 1.09903e-19)
(1.14111 -0.0386545 -1.7799e-20)
(1.12939 -0.0396232 1.54571e-19)
(0.93768 -0.0251701 -1.54673e-19)
(0.464997 -0.00466584 2.47281e-19)
(0.252925 0.000670177 0)
(0.783258 0.0142472 -1.88346e-20)
(1.08228 0.0313087 4.64673e-20)
(1.15221 0.0357389 -3.00671e-20)
(1.13384 0.0308223 -6.34512e-20)
(1.10988 0.0240796 -1.31785e-19)
(1.09316 0.0175259 -6.89163e-20)
(1.0812 0.0111719 -7.14606e-20)
(1.07199 0.00492962 0)
(1.06453 -0.00122858 0)
(1.05819 -0.00730605 0)
(1.05257 -0.0132831 0)
(1.04735 -0.0191281 8.16741e-20)
(1.0423 -0.0247909 -1.68348e-19)
(1.03721 -0.0302029 0)
(1.03187 -0.0353076 1.37044e-19)
(1.02613 -0.0399475 -9.29713e-20)
(1.01987 -0.0439592 4.0027e-21)
(1.01302 -0.0471613 2.0826e-19)
(1.00555 -0.0493175 2.72632e-21)
(0.997486 -0.0501616 2.30714e-19)
(0.988952 -0.0493853 -2.40576e-19)
(0.980236 -0.0467426 0)
(0.971748 -0.0420602 -1.34999e-19)
(0.963993 -0.0352469 -1.42242e-19)
(0.957566 -0.0263995 0)
(0.953096 -0.0159351 -1.51519e-19)
(0.951031 -0.0044518 1.9535e-19)
(0.951626 0.00731682 3.8958e-20)
(0.954786 0.0183808 -2.06579e-19)
(0.96016 0.0281739 -7.37826e-20)
(0.967193 0.0360898 -1.21167e-19)
(0.975254 0.0419117 1.32518e-19)
(0.983795 0.045654 0)
(0.992393 0.0474825 2.42216e-19)
(1.00067 0.0475501 -2.89997e-20)
(1.00843 0.0461498 2.76967e-20)
(1.01561 0.043578 0)
(1.0222 0.0400758 2.55384e-20)
(1.02827 0.0358546 1.22744e-19)
(1.03393 0.0310864 0)
(1.03933 0.0259142 -9.14843e-20)
(1.04465 0.0204372 -8.7531e-20)
(1.05009 0.0147354 0)
(1.05588 0.00887196 8.29598e-20)
(1.06232 0.00289312 -4.04628e-20)
(1.06979 -0.00318103 0)
(1.07881 -0.00933509 -3.79015e-20)
(1.0902 -0.0155598 -7.43835e-20)
(1.10523 -0.0218884 -7.20211e-20)
(1.12574 -0.0283498 3.49092e-20)
(1.14737 -0.0340692 9.86098e-20)
(1.12021 -0.0337469 6.55658e-20)
(0.910236 -0.0202211 -1.30246e-19)
(0.448022 -0.00360475 -8.33528e-20)
(0.244865 0.000499261 0)
(0.759021 0.0113364 0)
(1.06545 0.0261531 0)
(1.15346 0.0311603 0)
(1.14295 0.0271358 0)
(1.11981 0.0206284 0)
(1.10282 0.014049 0)
(1.0907 0.00757225 0)
(1.08143 0.00111217 1.35987e-19)
(1.07393 -0.00536916 0)
(1.06754 -0.0118831 -1.42283e-19)
(1.06184 -0.0184248 0)
(1.05649 -0.0249615 0)
(1.05123 -0.0314549 3.16799e-19)
(1.0458 -0.0378594 0)
(1.03994 -0.0440801 0)
(1.03348 -0.049967 0)
(1.02622 -0.055332 1.87955e-19)
(1.018 -0.0599216 -1.94447e-19)
(1.0087 -0.0634204 0)
(0.998309 -0.0654334 -1.1171e-19)
(0.98691 -0.0654788 -2.49613e-19)
(0.97477 -0.0630008 0)
(0.962498 -0.0576035 -1.35987e-19)
(0.950898 -0.0489783 3.88388e-21)
(0.94098 -0.0370676 -4.69005e-19)
(0.933906 -0.0223713 -1.66577e-19)
(0.930613 -0.00590248 -1.31034e-21)
(0.93159 0.011038 -8.35412e-20)
(0.936662 0.0267661 1.00974e-20)
(0.945095 0.0402692 1.5214e-19)
(0.955805 0.0506394 1.79613e-20)
(0.967673 0.057726 4.23418e-21)
(0.979827 0.0617755 -7.61024e-19)
(0.991565 0.063122 1.77161e-19)
(1.00242 0.0622046 2.81821e-20)
(1.01225 0.0595748 5.33224e-20)
(1.02102 0.0556598 2.50463e-20)
(1.0288 0.0508161 2.32657e-20)
(1.03575 0.0453259 -2.73167e-19)
(1.04205 0.0393961 -2.56417e-19)
(1.0479 0.0331926 -3.47817e-19)
(1.05352 0.0268263 -8.18546e-20)
(1.05913 0.0203722 0)
(1.06502 0.0138891 1.96263e-20)
(1.07151 0.00741884 0)
(1.07901 0.0009752 -3.62955e-20)
(1.08807 -0.00543473 -3.50633e-20)
(1.09949 -0.0118166 -1.71421e-20)
(1.11463 -0.0182079 6.6385e-20)
(1.13487 -0.0245804 0)
(1.15225 -0.0297597 0)
(1.11046 -0.0285982 0)
(0.887029 -0.0163323 1.71521e-20)
(0.43495 -0.00280124 7.97757e-20)
(0.238588 0.000392243 0)
(0.739021 0.00908132 0)
(1.04985 0.0218397 1.34433e-20)
(1.15341 0.0270154 2.53674e-20)
(1.15129 0.02373 0)
(1.12967 0.0174543 0)
(1.11263 0.0108286 5.6464e-20)
(1.10049 0.00419789 0)
(1.09131 -0.00251425 1.23029e-19)
(1.08393 -0.00935593 0)
(1.07768 -0.016354 -2.58175e-19)
(1.0721 -0.0235223 -6.58064e-20)
(1.06685 -0.0308448 2.7423e-19)
(1.06162 -0.0383011 5.94143e-19)
(1.05611 -0.0459055 -1.50207e-19)
(1.05002 -0.0535342 4.00117e-20)
(1.0431 -0.0610585 8.07565e-20)
(1.03504 -0.068299 0)
(1.02557 -0.0749741 0)
(1.01439 -0.080667 0)
(1.00132 -0.0848456 1.07742e-19)
(0.986346 -0.0867888 -1.25497e-19)
(0.969592 -0.0855407 -7.74197e-19)
(0.951701 -0.0800754 1.38997e-19)
(0.933951 -0.0696332 -3.12416e-19)
(0.918067 -0.0536551 -6.73694e-19)
(0.906315 -0.0325975 2.70381e-19)
(0.900766 -0.00814923 -1.88895e-19)
(0.902452 0.0170124 -1.85203e-19)
(0.911029 0.0400572 -2.40534e-20)
(0.924857 0.0588567 -8.33684e-20)
(0.941659 0.0721603 -1.5365e-19)
(0.959421 0.0801915 -2.82128e-19)
(0.976709 0.0836775 -5.18576e-19)
(0.992508 0.0834434 1.15351e-19)
(1.00646 0.080529 -1.10267e-19)
(1.01855 0.0757536 7.74482e-20)
(1.02889 0.0697427 -2.83783e-19)
(1.03775 0.0629621 -9.11269e-20)
(1.04537 0.0557447 -8.37076e-20)
(1.05206 0.0483183 1.64921e-19)
(1.05806 0.0408308 0)
(1.06369 0.03339 -5.67932e-20)
(1.06924 0.0260584 0)
(1.07503 0.0188691 0)
(1.08139 0.0118417 3.53699e-20)
(1.08874 0.00497679 5.12452e-20)
(1.09767 -0.00173789 3.19842e-20)
(1.109 -0.00832171 3.08164e-20)
(1.12409 -0.0148185 2.96746e-20)
(1.14364 -0.0211302 0)
(1.15605 -0.025838 -1.47909e-20)
(1.10077 -0.0241891 -2.90551e-20)
(0.86747 -0.0132943 6.68108e-20)
(0.42487 -0.00223209 -2.19209e-19)
(0.233588 0.000333631 0)
(0.722432 0.00738394 -1.51174e-20)
(1.03571 0.018328 0)
(1.1525 0.0234173 0)
(1.15891 0.0207322 4.63417e-20)
(1.13941 0.014695 4.87549e-20)
(1.12258 0.00802853 -2.53558e-20)
(1.11058 0.0012388 0)
(1.10163 -0.00572271 2.71343e-20)
(1.09456 -0.0129181 -5.52869e-20)
(1.08867 -0.0204038 0)
(1.08346 -0.0282109 -5.80398e-20)
(1.07859 -0.0363696 -1.94915e-21)
(1.07372 -0.0449094 -4.72295e-20)
(1.06849 -0.0538508 3.08045e-20)
(1.0626 -0.0631364 -3.87074e-21)
(1.05569 -0.0727058 1.49072e-19)
(1.04733 -0.0824103 0)
(1.03704 -0.0920123 3.31462e-19)
(1.02431 -0.101099 -8.71961e-22)
(1.00859 -0.108991 0)
(0.989481 -0.114728 -3.34817e-19)
(0.966775 -0.116869 -1.23921e-19)
(0.940712 -0.113346 5.59839e-19)
(0.91285 -0.102014 4.66932e-21)
(0.886213 -0.0810957 0)
(0.865331 -0.0501308 1.89933e-19)
(0.855157 -0.0120667 -1.13503e-19)
(0.858346 0.0275038 1.05296e-19)
(0.873981 0.0626521 -3.95739e-19)
(0.898015 0.0889024 1.71839e-19)
(0.925324 0.104999 3.18705e-19)
(0.952282 0.112503 5.52284e-19)
(0.976556 0.113261 -1.20849e-19)
(0.997325 0.109458 -1.2258e-19)
(1.01464 0.102842 9.98482e-20)
(1.02886 0.0945862 -3.66935e-19)
(1.04045 0.0854912 2.69046e-19)
(1.0499 0.0760627 8.31358e-20)
(1.05769 0.0666124 0)
(1.06427 0.0573431 1.07473e-19)
(1.07005 0.0483625 -3.22588e-20)
(1.07537 0.0397183 0)
(1.08057 0.0314291 -6.49955e-20)
(1.08601 0.0234815 -6.54467e-20)
(1.09201 0.0158735 6.2054e-20)
(1.09904 0.00857029 -1.54574e-19)
(1.10768 0.00154129 -6.04748e-20)
(1.11878 -0.00525659 2.86082e-20)
(1.13365 -0.0118684 2.75574e-20)
(1.15212 -0.0181138 -1.32493e-20)
(1.15899 -0.0223978 -3.9053e-20)
(1.09135 -0.0204832 6.4768e-21)
(0.85047 -0.0109034 -7.5861e-21)
(0.416181 -0.00184389 0)
(0.229485 0.000254921 0)
(0.708583 0.0061493 0)
(1.02301 0.0155747 -2.15109e-20)
(1.15101 0.0204485 0)
(1.16588 0.0182577 -2.02013e-20)
(1.14904 0.012485 2.09323e-20)
(1.13267 0.0058184 4.34518e-20)
(1.12093 -0.00108541 0)
(1.11237 -0.0082528 9.23113e-20)
(1.10578 -0.0157591 0)
(1.10045 -0.0236877 -1.96742e-19)
(1.09589 -0.0320994 -1.01087e-19)
(1.09172 -0.0410726 -3.24958e-21)
(1.0876 -0.050659 -1.10507e-19)
(1.08317 -0.0609931 1.10498e-19)
(1.07808 -0.0720724 1.18104e-19)
(1.0719 -0.0839614 -5.87342e-20)
(1.06411 -0.0966427 -1.97393e-19)
(1.05401 -0.110043 -6.55183e-20)
(1.04076 -0.123887 1.52785e-19)
(1.02331 -0.13766 0)
(1.00045 -0.15026 -1.08557e-20)
(0.970875 -0.159793 2.25371e-19)
(0.933789 -0.1631 0)
(0.889487 -0.155019 0)
(0.842275 -0.129735 4.02666e-19)
(0.801654 -0.0831437 -5.65826e-21)
(0.780865 -0.0195754 7.35332e-21)
(0.787593 0.0478079 -5.13549e-19)
(0.819235 0.104294 4.53664e-19)
(0.864176 0.140338 3.81098e-19)
(0.910105 0.15652 6.43557e-19)
(0.95064 0.158738 4.54651e-19)
(0.983621 0.15235 2.37011e-19)
(1.00963 0.141517 0)
(1.02973 0.128686 0)
(1.04512 0.115242 2.09066e-19)
(1.0569 0.101921 1.41199e-21)
(1.066 0.0891379 -7.80847e-20)
(1.07322 0.077057 -6.44165e-20)
(1.07909 0.0657377 -1.26044e-19)
(1.08413 0.0551594 9.26496e-20)
(1.0887 0.0452759 0)
(1.09319 0.0360359 2.95757e-20)
(1.09796 0.0273661 -2.80588e-20)
(1.10336 0.0192119 0)
(1.10986 0.011511 0)
(1.11803 0.00420033 -1.73578e-21)
(1.12876 -0.00278069 0)
(1.14324 -0.0094837 0)
(1.16023 -0.015643 -2.57215e-22)
(1.1613 -0.0195562 0)
(1.0826 -0.0175309 -3.46452e-20)
(0.835981 -0.00910575 0)
(0.408554 -0.00152706 -5.0257e-20)
(0.225927 0.000231346 0)
(0.696864 0.00532534 2.96139e-21)
(1.01171 0.0135497 2.3444e-21)
(1.14919 0.0181708 0)
(1.1722 0.0164015 2.1505e-21)
(1.15842 0.0109258 0)
(1.14278 0.00432716 0)
(1.13143 -0.00261904 0)
(1.12338 -0.00989723 0)
(1.11744 -0.0176028 0)
(1.11288 -0.025839 0)
(1.10923 -0.0347068 0)
(1.10611 -0.0443216 0)
(1.10317 -0.0548605 1.32376e-19)
(1.10011 -0.0664499 -4.62971e-20)
(1.09657 -0.0792271 -9.61115e-20)
(1.0921 -0.0934153 -9.74432e-20)
(1.08614 -0.109232 4.26072e-21)
(1.0779 -0.126925 -6.50735e-20)
(1.06627 -0.146675 -2.52511e-21)
(1.04967 -0.168511 2.87109e-19)
(1.02577 -0.19202 -1.85867e-19)
(0.991257 -0.215688 0)
(0.94197 -0.235922 2.25007e-19)
(0.873493 -0.244227 -1.28006e-18)
(0.78578 -0.2235 8.13595e-19)
(0.697666 -0.153924 5.31407e-19)
(0.64889 -0.0364171 2.14103e-18)
(0.665032 0.0931072 0)
(0.737903 0.189942 1.00002e-18)
(0.829059 0.233506 -1.41664e-18)
(0.906962 0.237463 -4.24914e-19)
(0.964738 0.222556 -1.18353e-19)
(1.00591 0.200911 -6.24042e-19)
(1.03477 0.177864 4.13352e-21)
(1.05497 0.155742 5.03412e-19)
(1.0692 0.135456 -3.90662e-20)
(1.07936 0.117114 1.94649e-19)
(1.08674 0.100661 6.10039e-20)
(1.09225 0.0858646 1.10194e-19)
(1.09657 0.0725246 0)
(1.10019 0.06045 2.7303e-20)
(1.10352 0.0494567 4.41372e-20)
(1.10695 0.0393869 4.59319e-20)
(1.11077 0.0301195 -2.46204e-20)
(1.11534 0.0215376 8.19726e-20)
(1.12112 0.0135405 -2.07188e-20)
(1.1287 0.0060278 -9.3892e-20)
(1.13895 -0.00106268 -1.0415e-20)
(1.15285 -0.00779577 -2.14433e-20)
(1.16802 -0.0138164 -2.00094e-20)
(1.16308 -0.0173722 1.07634e-20)
(1.07441 -0.0153018 1.07912e-20)
(0.82337 -0.00784851 8.05525e-22)
(0.402015 -0.00135935 2.35735e-20)
(0.222452 0.000281408 5.64586e-20)
(0.686453 0.00488306 -8.08224e-20)
(1.00143 0.0122169 2.83056e-23)
(1.1471 0.016611 2.8838e-20)
(1.17793 0.0152187 -2.83859e-20)
(1.16751 0.0100938 -2.89298e-20)
(1.15282 0.00366615 0)
(1.14198 -0.0032047 9.00838e-23)
(1.13453 -0.0104584 -1.53189e-20)
(1.12935 -0.0181978 7.7709e-21)
(1.12573 -0.0265457 -7.82924e-21)
(1.12318 -0.0356448 -7.83022e-21)
(1.1214 -0.0456454 4.11225e-21)
(1.12007 -0.0567616 1.53382e-20)
(1.11895 -0.0691989 2.87427e-20)
(1.11773 -0.0832149 5.62617e-20)
(1.11605 -0.0992135 2.0548e-19)
(1.11347 -0.117656 3.94099e-20)
(1.10927 -0.1392 0)
(1.10245 -0.164772 0)
(1.09145 -0.195474 -8.52073e-20)
(1.07334 -0.232806 3.19262e-20)
(1.04305 -0.278322 -3.47912e-19)
(0.991212 -0.332802 1.71872e-19)
(0.899571 -0.391946 -2.31683e-19)
(0.737082 -0.419145 0)
(0.519773 -0.330556 3.39333e-18)
(0.386152 -0.0811722 -1.15549e-18)
(0.431107 0.213132 -5.07925e-18)
(0.627969 0.38872 2.01991e-18)
(0.824388 0.407653 0)
(0.946243 0.356336 -8.79149e-19)
(1.01449 0.30054 3.03235e-19)
(1.05435 0.252063 2.53278e-19)
(1.07825 0.211842 1.19075e-19)
(1.09293 0.178781 1.06402e-19)
(1.10218 0.151346 1.50227e-19)
(1.10816 0.12822 0)
(1.11197 0.108511 -3.31921e-20)
(1.11452 0.0914674 2.54859e-19)
(1.11643 0.0765578 0)
(1.11801 0.0633725 -1.38827e-21)
(1.11962 0.0516083 -9.10428e-21)
(1.12159 0.0410108 -2.94364e-20)
(1.12418 0.0313809 -9.541e-21)
(1.12773 0.0225704 1.77902e-20)
(1.13264 0.0144413 -9.26922e-21)
(1.1395 0.00687552 -9.65735e-21)
(1.14914 -0.000221846 -8.6962e-22)
(1.16232 -0.0068934 7.03857e-21)
(1.17538 -0.0127142 6.09576e-21)
(1.16446 -0.015917 -1.25129e-20)
(1.06696 -0.0138126 -1.81459e-20)
(0.812464 -0.00709706 -1.04739e-20)
(0.396311 -0.00131102 -1.95558e-20)
(0.214562 0.000310477 -7.35826e-19)
(0.673943 0.00478323 0)
(0.990342 0.0114356 -2.03466e-19)
(1.1443 0.0156772 1.81774e-19)
(1.18302 0.0147089 1.76206e-19)
(1.17627 0.0100462 0)
(1.16271 0.0039255 1.79594e-19)
(1.15243 -0.00272114 0)
(1.14564 -0.00978638 0)
(1.14129 -0.0173599 9.02545e-20)
(1.13868 -0.0255749 0)
(1.1374 -0.0345893 -8.55139e-20)
(1.13713 -0.0445762 -2.96794e-21)
(1.13767 -0.0557594 1.09108e-20)
(1.13884 -0.0684169 1.63639e-20)
(1.14048 -0.0828761 1.59802e-20)
(1.14242 -0.0996065 9.17033e-21)
(1.14447 -0.119252 -2.31682e-21)
(1.1464 -0.142749 -2.13655e-20)
(1.14788 -0.171553 1.45583e-20)
(1.14835 -0.207871 -7.2467e-20)
(1.14661 -0.255555 7.88768e-22)
(1.14061 -0.321367 0)
(1.12554 -0.421437 0)
(1.06807 -0.577738 1.32959e-19)
(0.818229 -0.673385 0)
(0.215048 -0.362372 5.91911e-17)
(0.36318 0.455155 -1.10919e-19)
(0.913605 0.661956 -3.23042e-20)
(1.10079 0.48677 -9.72258e-20)
(1.12578 0.36329 9.98942e-20)
(1.13644 0.285102 2.18765e-19)
(1.14112 0.230304 1.78273e-19)
(1.14266 0.189605 -2.97309e-20)
(1.14251 0.157749 1.06233e-23)
(1.14159 0.131975 1.00307e-20)
(1.14027 0.110569 3.5534e-23)
(1.13886 0.0924527 -2.7089e-20)
(1.13761 0.0768606 5.2547e-21)
(1.13668 0.0632545 -1.38944e-20)
(1.13627 0.0512442 -7.70391e-21)