0 	0 	0 	0
0.000502513 	0.336825 	-1.64786e-19 	0
0.00100503 	0.67365 	-3.29573e-19 	0
0.00150754 	0.85343 	-3.79041e-19 	0
0.00201005 	0.996472 	-3.73981e-19 	0
0.00251256 	1.09446 	-3.21082e-19 	0
0.00301508 	1.16564 	-2.82531e-19 	0
0.00351759 	1.22598 	-2.48325e-19 	0
0.0040201 	1.2715 	-2.57093e-19 	0
0.00452261 	1.31423 	-2.67685e-19 	0
0.00502513 	1.34762 	-2.97515e-19 	0
0.00552764 	1.38 	-2.24822e-19 	0
0.00603015 	1.40685 	-3.56549e-19 	0
0.00653266 	1.4328 	-3.54648e-19 	0
0.00703518 	1.4552 	-3.58594e-19 	0
0.00753769 	1.47655 	-3.65526e-19 	0
0.0080402 	1.49601 	-3.60176e-19 	0
0.00854271 	1.51408 	-3.58146e-19 	0
0.00904523 	1.53118 	-3.10817e-19 	0
0.00954774 	1.54693 	-3.5389e-19 	0
0.0100503 	1.56202 	-1.7387e-19 	0
0.0105528 	1.57609 	-3.51092e-19 	0
0.0110553 	1.58957 	-1.74426e-19 	0
0.0115578 	1.60228 	-3.95403e-19 	0
0.0120603 	1.61445 	-3.36318e-19 	0
0.0125628 	1.62602 	-4.69343e-19 	0
0.0130653 	1.6371 	-4.92919e-19 	0
0.0135678 	1.64765 	-4.69759e-19 	0
0.0140704 	1.65781 	-5.26766e-19 	0
0.0145729 	1.6675 	-3.37612e-19 	0
0.0150754 	1.67691 	-4.9431e-19 	0
0.0155779 	1.68587 	-2.35107e-19 	0
0.0160804 	1.69461 	-5.19692e-19 	0
0.0165829 	1.70294 	-3.05521e-19 	0
0.0170854 	1.71109 	-5.89503e-19 	0
0.0175879 	1.71886 	-4.09085e-19 	0
0.0180905 	1.72645 	-5.03236e-19 	0
0.018593 	1.73376 	-4.69309e-19 	0
0.0190955 	1.74082 	-3.53935e-19 	0
0.019598 	1.74774 	-4.9316e-19 	0
0.0201005 	1.75433 	-2.04884e-19 	0
0.020603 	1.76087 	-4.62773e-19 	0
0.0211055 	1.76706 	-7.93398e-20 	0
0.021608 	1.77323 	-3.92014e-19 	0
0.0221106 	1.77907 	-1.17708e-19 	0
0.0226131 	1.78487 	-2.43073e-19 	0
0.0231156 	1.79043 	-1.39451e-19 	0
0.0236181 	1.79587 	-1.15762e-19 	0
0.0241206 	1.80117 	-1.27429e-19 	0
0.0246231 	1.8063 	-3.16732e-20 	0
0.0251256 	1.81136 	-5.62008e-20 	0
0.0256281 	1.8162 	1.46305e-20 	0
0.0261307 	1.82103 	8.19488e-20 	0
0.0266332 	1.8256 	5.31405e-20 	0
0.0271357 	1.83017 	1.72134e-19 	0
0.0276382 	1.83453 	1.29356e-19 	0
0.0281407 	1.83885 	1.59033e-19 	0
0.0286432 	1.84302 	1.61358e-19 	0
0.0291457 	1.84711 	1.0767e-19 	0
0.0296482 	1.85111 	9.52236e-20 	0
0.0301508 	1.85498 	8.30029e-20 	0
0.0306533 	1.8588 	-2.80796e-20 	0
0.0311558 	1.86247 	1.06574e-19 	0
0.0316583 	1.86611 	-8.27753e-20 	0
0.0321608 	1.86962 	9.41811e-20 	0
0.0326633 	1.87308 	-8.60027e-20 	0
0.0331658 	1.87643 	4.14865e-20 	0
0.0336683 	1.87973 	-1.95019e-20 	0
0.0341709 	1.88293 	2.76149e-20 	0
0.0346734 	1.88606 	1.04532e-19 	0
0.0351759 	1.88912 	5.74523e-20 	0
0.0356784 	1.8921 	4.76463e-20 	0
0.0361809 	1.89502 	-1.11547e-19 	0
0.0366834 	1.89786 	-2.6472e-20 	0
0.0371859 	1.90065 	-2.50189e-19 	0
0.0376884 	1.90337 	-1.27411e-19 	0
0.038191 	1.90602 	-1.77534e-19 	0
0.0386935 	1.90862 	-1.28739e-19 	0
0.039196 	1.91116 	-1.16801e-19 	0
0.0396985 	1.91363 	-9.6918e-20 	0
0.040201 	1.91606 	-8.49418e-20 	0
0.0407035 	1.91841 	-8.52475e-20 	0
0.041206 	1.92073 	-4.86695e-20 	0
0.0417085 	1.92298 	-7.83859e-20 	0
0.0422111 	1.92519 	7.24008e-20 	0
0.0427136 	1.92733 	8.1485e-20 	0
0.0432161 	1.92945 	1.60789e-19 	0
0.0437186 	1.9315 	2.00842e-19 	0
0.0442211 	1.93352 	2.05689e-19 	0
0.0447236 	1.93548 	1.45977e-19 	0
0.0452261 	1.93739 	1.11146e-19 	0
0.0457286 	1.93928 	6.36569e-20 	0
0.0462312 	1.9411 	4.1695e-20 	0
0.0467337 	1.9429 	1.6483e-20 	0
0.0472362 	1.94463 	1.83828e-21 	0
0.0477387 	1.94636 	4.46513e-22 	0
0.0482412 	1.94801 	-1.33629e-20 	0
0.0487437 	1.94966 	-1.4347e-20 	0
0.0492462 	1.95124 	2.09911e-20 	0
0.0497487 	1.9528 	7.57013e-20 	0
0.0502513 	1.95432 	1.53237e-19 	0
0.0507538 	1.95581 	2.53597e-19 	0
0.0512563 	1.95727 	3.20336e-19 	0
0.0517588 	1.95868 	3.2091e-19 	0
0.0522613 	1.96008 	3.17578e-19 	0
0.0527638 	1.96142 	2.29822e-19 	0
0.0532663 	1.96275 	1.33737e-19 	0
0.0537688 	1.96403 	1.09659e-19 	0
0.0542714 	1.9653 	7.05562e-20 	0
0.0547739 	1.96653 	7.05238e-20 	0
0.0552764 	1.96773 	8.34069e-20 	0
0.0557789 	1.96891 	8.95229e-20 	0
0.0562814 	1.97005 	1.06946e-19 	0
0.0567839 	1.97118 	8.91687e-20 	0
0.0572864 	1.97226 	1.35761e-19 	0
0.0577889 	1.97334 	5.72745e-20 	0
0.0582915 	1.97437 	1.69197e-19 	0
0.058794 	1.9754 	1.55954e-19 	0
0.0592965 	1.97638 	1.85276e-19 	0
0.059799 	1.97736 	1.74508e-19 	0
0.0603015 	1.9783 	1.60361e-19 	0
0.060804 	1.97922 	1.12474e-19 	0
0.0613065 	1.98012 	6.59498e-20 	0
0.061809 	1.981 	8.411e-20 	0
0.0623116 	1.98186 	-1.20631e-20 	0
0.0628141 	1.98269 	7.68993e-20 	0
0.0633166 	1.98351 	1.30493e-21 	0
0.0638191 	1.9843 	6.30413e-20 	0
0.0643216 	1.98508 	2.6936e-20 	0
0.0648241 	1.98583 	3.15906e-20 	0
0.0653266 	1.98657 	4.56849e-21 	0
0.0658291 	1.98729 	-2.12046e-20 	0
0.0663317 	1.98799 	-4.69462e-20 	0
0.0668342 	1.98866 	-9.52477e-20 	0
0.0673367 	1.98933 	-1.16171e-19 	0
0.0678392 	1.98997 	-2.03896e-19 	0
0.0683417 	1.9906 	-1.78399e-19 	0
0.0688442 	1.99121 	-2.19776e-19 	0
0.0693467 	1.99181 	-1.82181e-19 	0
0.0698492 	1.99239 	-1.2977e-19 	0
0.0703518 	1.99295 	-1.12451e-19 	0
0.0708543 	1.9935 	-9.54759e-20 	0
0.0713568 	1.99403 	-7.2548e-20 	0
0.0718593 	1.99455 	-8.59988e-20 	0
0.0723618 	1.99505 	-1.03157e-19 	0
0.0728643 	1.99555 	-3.82261e-20 	0
0.0733668 	1.99601 	-1.47818e-19 	0
0.0738693 	1.99648 	1.58583e-20 	0
0.0743719 	1.99692 	-1.40674e-19 	0
0.0748744 	1.99736 	8.46506e-21 	0
0.0753769 	1.99777 	-9.00151e-20 	0
0.0758794 	1.99818 	-1.48378e-20 	0
0.0763819 	1.99857 	-2.72667e-20 	0
0.0768844 	1.99895 	-4.6091e-20 	0
0.0773869 	1.99932 	4.06257e-20 	0
0.0778894 	1.99967 	-8.17015e-20 	0
0.078392 	2.00002 	1.01405e-19 	0
0.0788945 	2.00035 	-1.19474e-19 	0
0.079397 	2.00067 	1.05969e-19 	0
0.0798995 	2.00098 	-6.06575e-20 	0
0.080402 	2.00128 	9.10019e-20 	0
0.0809045 	2.00156 	2.69177e-21 	0
0.081407 	2.00183 	4.97741e-20 	0
0.0819095 	2.00209 	6.33821e-20 	0
0.0824121 	2.00234 	8.24994e-21 	0
0.0829146 	2.00259 	1.01833e-19 	0
0.0834171 	2.00281 	-3.23015e-20 	0
0.0839196 	2.00303 	9.58067e-20 	0
0.0844221 	2.00324 	-5.09224e-20 	0
0.0849246 	2.00344 	8.83527e-20 	0
0.0854271 	2.00363 	2.81823e-21 	0
0.0859296 	2.00381 	7.98794e-20 	0
0.0864322 	2.00397 	5.12058e-20 	0
0.0869347 	2.00413 	6.20208e-20 	0
0.0874372 	2.00428 	6.94938e-20 	0
0.0879397 	2.00442 	2.26289e-20 	0
0.0884422 	2.00455 	5.97871e-20 	0
0.0889447 	2.00467 	-1.20283e-20 	0
0.0894472 	2.00477 	5.00674e-20 	0
0.0899497 	2.00487 	-9.15127e-21 	0
0.0904523 	2.00496 	4.05844e-20 	0
0.0909548 	2.00505 	2.56745e-20 	0
0.0914573 	2.00512 	3.15871e-20 	0
0.0919598 	2.00518 	3.03366e-20 	0
0.0924623 	2.00523 	2.33288e-20 	0
0.0929648 	2.00528 	2.22234e-20 	0
0.0934673 	2.00531 	1.3726e-20 	0
0.0939698 	2.00534 	1.50753e-20 	0
0.0944724 	2.00535 	-6.10404e-21 	0
0.0949749 	2.00536 	9.05576e-21 	0
0.0954774 	2.00536 	4.64761e-21 	0
0.0959799 	2.00535 	4.30955e-21 	0
0.0964824 	2.00533 	3.90698e-21 	0
0.0969849 	2.0053 	9.5725e-22 	0
0.0974874 	2.00526 	8.72835e-22 	0
0.0979899 	2.00522 	-9.03347e-22 	0
0.0984925 	2.00516 	-6.27162e-22 	0
0.098995 	2.0051 	-1.20048e-21 	0
0.0994975 	2.00507 	-6.00241e-22 	0
0.1 	2.00504 	0 	0
