/*--------------------------------*- C++ -*----------------------------------*\
  =========                 |
  \\      /  F ield         | OpenFOAM: The Open Source CFD Toolbox
   \\    /   O peration     | Website:  https://openfoam.org
    \\  /    A nd           | Version:  7
     \\/     M anipulation  |
\*---------------------------------------------------------------------------*/
FoamFile
{
    version     2.0;
    format      ascii;
    class       volScalarField;
    location    "0.2";
    object      p;
}
// * * * * * * * * * * * * * * * * * * * * * * * * * * * * * * * * * * * * * //

dimensions      [0 2 -2 0 0 0 0];

internalField   nonuniform List<scalar> 
100
(
4.5532e-07
-0.0142968
-0.0161198
-0.00209971
0.023881
0.0549687
0.0826237
0.0984071
0.0968799
0.0815582
0.0140032
-0.00258501
-0.00458268
0.00685557
0.0271208
0.0513144
0.0733331
0.0866476
0.0848872
0.0669143
0.0187522
-0.00423898
-0.00716435
0.00473094
0.0250289
0.0494064
0.0725109
0.0877113
0.0856384
0.0604133
0.00544525
-0.0237966
-0.0255774
-0.00933681
0.0163307
0.0472115
0.0780384
0.101058
0.102398
0.0702455
-0.0355615
-0.0672407
-0.0627616
-0.0371239
-0.000916632
0.0423283
0.0879278
0.127078
0.140303
0.106898
-0.119494
-0.143725
-0.12328
-0.0811436
-0.0286247
0.0330842
0.101579
0.168431
0.208857
0.18949
-0.271056
-0.263326
-0.20909
-0.1404
-0.0651016
0.0208524
0.120441
0.229117
0.321533
0.351111
-0.542116
-0.432762
-0.311462
-0.203638
-0.0999738
0.0133947
0.149155
0.313396
0.4982
0.662421
-1.07596
-0.643934
-0.38734
-0.23437
-0.110558
0.0184739
0.180463
0.406069
0.75757
1.29461
-1.99465
-0.850966
-0.363017
-0.185649
-0.0793451
0.0262687
0.176019
0.443458
1.04955
2.30862
)
;

boundaryField
{
    movingWall
    {
        type            zeroGradient;
    }
    fixedWalls
    {
        type            zeroGradient;
    }
    frontAndBack
    {
        type            empty;
    }
}


// ************************************************************************* //
