/*--------------------------------*- C++ -*----------------------------------*\
  =========                 |
  \\      /  F ield         | OpenFOAM: The Open Source CFD Toolbox
   \\    /   O peration     | Website:  https://openfoam.org
    \\  /    A nd           | Version:  7
     \\/     M anipulation  |
\*---------------------------------------------------------------------------*/
FoamFile
{
    version     2.0;
    format      ascii;
    class       surfaceScalarField;
    location    "0.2";
    object      phi;
}
// * * * * * * * * * * * * * * * * * * * * * * * * * * * * * * * * * * * * * //

dimensions      [0 3 -1 0 0 0 0];

internalField   nonuniform List<scalar> 
180
(
-2.01695e-07
2.01683e-07
-1.11779e-06
9.16091e-07
-2.27597e-06
1.15817e-06
-3.19337e-06
9.17397e-07
-3.5659e-06
3.72529e-07
-3.26718e-06
-2.98715e-07
-2.36494e-06
-9.02244e-07
-1.16097e-06
-1.20397e-06
-1.98866e-07
-9.62107e-07
-1.98866e-07
-9.85763e-07
1.18745e-06
-3.21534e-06
3.14566e-06
-5.70946e-06
3.65229e-06
-7.61654e-06
2.82448e-06
-8.37567e-06
1.13166e-06
-7.75517e-06
-9.19216e-07
-5.88739e-06
-2.77002e-06
-3.31912e-06
-3.77223e-06
-9.95445e-07
-3.28578e-06
-1.19431e-06
-1.71705e-06
2.9045e-06
-5.09573e-06
6.52435e-06
-8.6321e-06
7.18866e-06
-1.1249e-05
5.44138e-06
-1.22924e-05
2.17504e-06
-1.14899e-05
-1.72175e-06
-8.96519e-06
-5.29469e-06
-5.32724e-06
-7.41018e-06
-1.77088e-06
-6.84214e-06
-2.96519e-06
-2.45138e-06
5.35587e-06
-6.90811e-06
1.09811e-05
-1.13113e-05
1.15918e-05
-1.44666e-05
8.59665e-06
-1.57511e-05
3.45958e-06
-1.48978e-05
-2.57508e-06
-1.19525e-05
-8.24e-06
-7.4274e-06
-1.19352e-05
-2.63595e-06
-1.16336e-05
-5.60114e-06
-3.29974e-06
8.65561e-06
-8.69398e-06
1.63753e-05
-1.36083e-05
1.65062e-05
-1.69677e-05
1.1956e-05
-1.83775e-05
4.86935e-06
-1.7655e-05
-3.29749e-06
-1.46984e-05
-1.11967e-05
-9.69145e-06
-1.69421e-05
-3.75163e-06
-1.75734e-05
-9.35277e-06
-4.31971e-06
1.29753e-05
-1.02134e-05
2.2269e-05
-1.48194e-05
2.11122e-05
-1.76634e-05
1.48001e-05
-1.88882e-05
6.09409e-06
-1.85271e-05
-3.65856e-06
-1.62866e-05
-1.34372e-05
-1.1723e-05
-2.15057e-05
-5.14959e-06
-2.41469e-05
-1.45024e-05
-5.43819e-06
1.84135e-05
-1.06453e-05
2.74761e-05
-1.33035e-05
2.37704e-05
-1.43481e-05
1.58447e-05
-1.47899e-05
6.53595e-06
-1.50116e-05
-3.43687e-06
-1.45733e-05
-1.38755e-05
-1.21937e-05
-2.38852e-05
-6.51204e-06
-2.98285e-05
-2.10144e-05
-6.10032e-06
2.45138e-05
-7.66987e-06
2.90457e-05
-5.66204e-06
2.17625e-05
-3.20387e-06
1.33865e-05
-2.09604e-06
5.42812e-06
-3.00473e-06
-2.52818e-06
-5.57086e-06
-1.13094e-05
-7.98646e-06
-2.14696e-05
-6.67074e-06
-3.11443e-05
-2.76851e-05
-2.14155e-06
2.66554e-05
5.54191e-06
2.13622e-05
1.49543e-05
1.23501e-05
2.16894e-05
6.65145e-06
2.45473e-05
2.57017e-06
2.31273e-05
-1.10815e-06
1.72877e-05
-5.46977e-06
7.88532e-06
-1.20673e-05
-7.42444e-07
-2.25165e-05
-2.84276e-05
2.66554e-05
4.80176e-05
6.03677e-05
6.70192e-05
6.95893e-05
6.84812e-05
6.30114e-05
5.09441e-05
2.84276e-05
)
;

boundaryField
{
    movingWall
    {
        type            calculated;
        value           uniform 0;
    }
    fixedWalls
    {
        type            calculated;
        value           uniform 0;
    }
    frontAndBack
    {
        type            empty;
        value           nonuniform 0();
    }
}


// ************************************************************************* //
