/*--------------------------------*- C++ -*----------------------------------*\
  =========                 |
  \\      /  F ield         | OpenFOAM: The Open Source CFD Toolbox
   \\    /   O peration     | Website:  https://openfoam.org
    \\  /    A nd           | Version:  7
     \\/     M anipulation  |
\*---------------------------------------------------------------------------*/
FoamFile
{
    version     2.0;
    format      ascii;
    class       volVectorField;
    location    "0.2";
    object      U;
}
// * * * * * * * * * * * * * * * * * * * * * * * * * * * * * * * * * * * * * //

dimensions      [0 1 -1 0 0 0 0];

internalField   nonuniform List<vector> 
100
(
(-0.000373096 0.000306439 0)
(-0.00571543 0.0033118 0)
(-0.0169752 0.00450243 0)
(-0.0281572 0.0036584 0)
(-0.0350277 0.00153167 0)
(-0.0354403 -0.00113433 0)
(-0.0290638 -0.0035328 0)
(-0.0176936 -0.00465892 0)
(-0.00587534 -0.00347585 0)
(-0.000308052 -0.000270399 0)
(-0.00366993 0.00553047 0)
(-0.0192838 0.0176625 0)
(-0.0448788 0.021412 0)
(-0.0687357 0.0168401 0)
(-0.082984 0.00684582 0)
(-0.0837682 -0.0054048 0)
(-0.0705212 -0.0164061 0)
(-0.046433 -0.0220552 0)
(-0.0198074 -0.0183851 0)
(-0.0036361 -0.00546661 0)
(-0.00693341 0.019086 0)
(-0.0319395 0.0458155 0)
(-0.0693216 0.0518476 0)
(-0.10252 0.0397572 0)
(-0.12192 0.0159461 0)
(-0.123259 -0.0127271 0)
(-0.10571 -0.0387302 0)
(-0.0724261 -0.053322 0)
(-0.0333864 -0.0477372 0)
(-0.0071085 -0.0192278 0)
(-0.0104094 0.039962 0)
(-0.0446273 0.0854172 0)
(-0.09236 0.0922926 0)
(-0.132794 0.0692921 0)
(-0.156011 0.027797 0)
(-0.158353 -0.0214089 0)
(-0.138635 -0.0669154 0)
(-0.0986866 -0.0949302 0)
(-0.0483923 -0.0897461 0)
(-0.0112834 -0.0411175 0)
(-0.0148581 0.0686695 0)
(-0.0584176 0.135346 0)
(-0.113597 0.140114 0)
(-0.157249 0.102955 0)
(-0.181664 0.0416332 0)
(-0.1853 -0.029884 0)
(-0.166702 -0.0978095 0)
(-0.124841 -0.144107 0)
(-0.066417 -0.144111 0)
(-0.0172532 -0.0728046 0)
(-0.0209684 0.106899 0)
(-0.0730249 0.193418 0)
(-0.128389 0.190254 0)
(-0.166589 0.136042 0)
(-0.186531 0.0555425 0)
(-0.190932 -0.0362373 0)
(-0.178558 -0.126305 0)
(-0.14409 -0.195235 0)
(-0.0862366 -0.209038 0)
(-0.0256318 -0.117536 0)
(-0.028717 0.157753 0)
(-0.084768 0.2528 0)
(-0.124169 0.2309 0)
(-0.140922 0.158557 0)
(-0.146545 0.0650493 0)
(-0.149626 -0.0378977 0)
(-0.150039 -0.143018 0)
(-0.138276 -0.235411 0)
(-0.0998446 -0.276377 0)
(-0.0348523 -0.17951 0)
(-0.0333915 0.22463 0)
(-0.0790786 0.29571 0)
(-0.071173 0.239156 0)
(-0.0432264 0.153808 0)
(-0.0225612 0.0628644 0)
(-0.0209165 -0.0318033 0)
(-0.0399345 -0.133587 0)
(-0.0704973 -0.240398 0)
(-0.084169 -0.322529 0)
(-0.035387 -0.257627 0)
(0.000651762 0.277735 0)
(0.00199497 0.279497 0)
(0.100204 0.186977 0)
(0.189715 0.108116 0)
(0.239797 0.0435309 0)
(0.247695 -0.0175472 0)
(0.211034 -0.087858 0)
(0.12702 -0.181108 0)
(0.0233995 -0.294127 0)
(0.0155728 -0.302145 0)
(0.29391 0.147401 0)
(0.386011 0.12727 0)
(0.540307 0.0742668 0)
(0.643283 0.0388843 0)
(0.690078 0.0156222 0)
(0.697232 -0.00350655 0)
(0.665053 -0.0262221 0)
(0.573232 -0.0630278 0)
(0.414598 -0.123149 0)
(0.309559 -0.151143 0)
)
;

boundaryField
{
    movingWall
    {
        type            fixedValue;
        value           uniform (1 0 0);
    }
    fixedWalls
    {
        type            noSlip;
    }
    frontAndBack
    {
        type            empty;
    }
}


// ************************************************************************* //
