/*--------------------------------*- C++ -*----------------------------------*\
  =========                 |
  \\      /  F ield         | OpenFOAM: The Open Source CFD Toolbox
   \\    /   O peration     | Website:  https://openfoam.org
    \\  /    A nd           | Version:  7
     \\/     M anipulation  |
\*---------------------------------------------------------------------------*/
FoamFile
{
    version     2.0;
    format      ascii;
    class       volScalarField;
    location    "50";
    object      k;
}
// * * * * * * * * * * * * * * * * * * * * * * * * * * * * * * * * * * * * * //

dimensions      [0 2 -2 0 0 0 0];

internalField   nonuniform List<scalar> 
12842
(
0.00568865
0.00510854
0.00471204
0.0044747
0.00429371
0.00419068
0.00410348
0.00404351
0.00398953
0.00395956
0.003933
0.00393054
0.00394092
0.00396532
0.00399789
0.00403272
0.00406238
0.00410352
0.0041421
0.00417222
0.00421838
0.00425697
0.00430459
0.00564684
0.00507245
0.00469864
0.00446626
0.0042903
0.00418161
0.00409621
0.00403914
0.00398755
0.00395776
0.00393067
0.00392853
0.00394013
0.00396639
0.00399918
0.00403275
0.00406394
0.00410374
0.0041447
0.00417522
0.00422831
0.00427631
0.00432915
0.00561736
0.00498483
0.00461528
0.00440279
0.00425179
0.00414529
0.00406059
0.00401557
0.00397486
0.00394696
0.00392543
0.00392604
0.00394049
0.00397165
0.0040099
0.00404885
0.00408079
0.00413014
0.00418085
0.00421217
0.00427398
0.00434582
0.00442902
0.00556448
0.00495382
0.00458092
0.00436956
0.00423148
0.00413133
0.00404706
0.00400093
0.00396187
0.00393845
0.00392035
0.00392351
0.00394091
0.00397506
0.00402096
0.00406214
0.00411407
0.00417503
0.00423429
0.0042934
0.00437164
0.00446527
0.00458099
0.00550607
0.00485483
0.00450967
0.00430093
0.00418262
0.00409861
0.00402203
0.00398419
0.00394928
0.00393024
0.00391456
0.00391908
0.00394115
0.00398471
0.00405188
0.00410682
0.00416807
0.004249
0.00434333
0.00441497
0.00451653
0.00463148
0.00477965
0.00545913
0.00481153
0.00446843
0.00426006
0.00415727
0.00407559
0.00400483
0.0039712
0.00393764
0.00392348
0.00390974
0.00391674
0.00394188
0.00399277
0.00407517
0.00415306
0.00424166
0.00431944
0.00443419
0.0045479
0.00466691
0.00481985
0.00499414
0.00539098
0.00473541
0.00441245
0.00421489
0.0041143
0.00404608
0.0039851
0.00395473
0.00392618
0.00391757
0.00390708
0.00391659
0.00395048
0.00401676
0.00412333
0.00425785
0.00436042
0.00445595
0.00458883
0.00472629
0.00487071
0.0050392
0.00523157
0.00534369
0.0046834
0.00437418
0.00418409
0.00408547
0.00402074
0.00397174
0.00394155
0.0039199
0.00391189
0.00390221
0.00391607
0.00396354
0.00405359
0.00419158
0.00434433
0.00447439
0.00459346
0.00473405
0.00490698
0.00506852
0.00526137
0.00545659
0.00528098
0.00462903
0.00432809
0.00415056
0.00406049
0.00399455
0.00395525
0.00392925
0.00391
0.00390591
0.00389882
0.00392059
0.00399771
0.00412334
0.00430738
0.00449963
0.00464806
0.00479785
0.00494604
0.00513288
0.00531729
0.00551907
0.00572118
0.0052205
0.00457243
0.00429236
0.00413384
0.00403933
0.00397754
0.00394368
0.00392
0.00390618
0.00390296
0.00390065
0.00393447
0.00405504
0.00421399
0.00443383
0.00463493
0.00480048
0.00497493
0.00513376
0.00533644
0.00552597
0.00573418
0.00592321
0.00515671
0.00452049
0.00424679
0.00410132
0.00401461
0.00395886
0.00393149
0.00390829
0.00389913
0.00389868
0.0039125
0.00398238
0.00413612
0.00433447
0.00458334
0.00480492
0.00498096
0.00517504
0.00533347
0.00553887
0.00573017
0.00593884
0.00611717
0.00509809
0.00447138
0.00422242
0.00408687
0.0040021
0.00394628
0.00392398
0.00389991
0.00389545
0.00389167
0.00394225
0.00404615
0.00423835
0.0044778
0.00473965
0.00496633
0.00515563
0.00535943
0.00553206
0.00573778
0.00592633
0.00612709
0.00628796
0.00503419
0.00442491
0.00417913
0.00405847
0.00397738
0.00392931
0.00391003
0.00389416
0.00388787
0.00389077
0.00397893
0.00412815
0.00435703
0.00463843
0.00491989
0.00516079
0.00535309
0.0055653
0.00572866
0.00593342
0.00611104
0.00630568
0.00645172
0.0049795
0.0043832
0.00415809
0.00404545
0.00396607
0.00392141
0.00390363
0.00388669
0.00389076
0.00390997
0.00403542
0.00422781
0.00449944
0.00481827
0.00509697
0.00533353
0.00553504
0.00574259
0.00592144
0.00610939
0.00628193
0.00645733
0.00658606
0.0049223
0.00433998
0.0041256
0.00401955
0.00394444
0.00390659
0.0038925
0.00387433
0.00389547
0.00395141
0.00410506
0.00433286
0.00464448
0.00499802
0.00528922
0.00553649
0.00573154
0.00593393
0.0061011
0.00628313
0.00643991
0.00660639
0.00672473
0.0048708
0.00430706
0.00410275
0.00400767
0.00393427
0.00389972
0.00388673
0.00388878
0.00393937
0.0040247
0.00419819
0.0044678
0.00481666
0.00519515
0.00547272
0.00570334
0.00590472
0.00609561
0.00626621
0.00643176
0.00658341
0.00672424
0.00682509
0.00482166
0.00426903
0.0040806
0.00398479
0.00391452
0.00388681
0.0038756
0.00389613
0.00398622
0.00409674
0.00429945
0.00459188
0.00497836
0.00537955
0.0056624
0.0058992
0.00608279
0.0062588
0.00642615
0.00657245
0.00670864
0.0068457
0.00694221
0.00477937
0.00423852
0.00405721
0.00397413
0.00390511
0.00388158
0.00388354
0.00395827
0.00407486
0.00420189
0.00442423
0.00475064
0.00516082
0.00556997
0.0058346
0.00604819
0.00623834
0.00640086
0.00654661
0.00669539
0.00682874
0.00693488
0.00702006
0.00474181
0.00420872
0.00403708
0.00395356
0.00388718
0.00386607
0.00387789
0.00400548
0.00414128
0.00429801
0.00455014
0.00488611
0.00532935
0.00574924
0.00600884
0.00622123
0.00638288
0.00652709
0.00668412
0.00680221
0.00692932
0.00704106
0.00712028
0.00470815
0.00418202
0.00402177
0.0039439
0.00387988
0.00386292
0.00392045
0.00411027
0.00425381
0.00442704
0.00469261
0.00505131
0.00550464
0.00591865
0.0061635
0.00635094
0.00651939
0.0066504
0.00677424
0.00690377
0.00702921
0.00712014
0.00720046
0.00467918
0.00415579
0.00399976
0.00392489
0.0038622
0.00385854
0.0039675
0.00417884
0.00433596
0.00453886
0.00482926
0.00518731
0.00566605
0.00607997
0.00631007
0.0064942
0.00663383
0.00674964
0.00688316
0.00698467
0.00710921
0.0072042
0.00728435
0.00465182
0.00413082
0.00398169
0.00391659
0.00386811
0.00388786
0.00407626
0.0043007
0.0044674
0.00468274
0.00497486
0.005349
0.00582914
0.0062307
0.00645284
0.00660711
0.00674582
0.00684541
0.00696171
0.00707651
0.00718782
0.00728066
0.007361
0.00462836
0.00411152
0.00397069
0.00389832
0.00388307
0.00392917
0.00415242
0.00438682
0.00456189
0.00480086
0.00510823
0.00547603
0.00597194
0.00636495
0.0065665
0.00672209
0.00684058
0.00693478
0.0070369
0.00713787
0.00725497
0.00733286
0.00741204
0.00460817
0.00409256
0.00395267
0.00389762
0.00390803
0.00402134
0.00428858
0.00453078
0.00471675
0.00496349
0.00526171
0.00563917
0.00612919
0.00650286
0.00670018
0.00681871
0.00692876
0.00700094
0.00711815
0.0072095
0.00731518
0.00740337
0.00748995
0.00459377
0.00407543
0.00394123
0.00392409
0.00398727
0.00412963
0.00440293
0.00464729
0.0048361
0.0050914
0.00538971
0.00576394
0.00625723
0.00661616
0.00679689
0.00692299
0.00701199
0.00708901
0.00716803
0.00729167
0.00738116
0.00746905
0.00754027
0.00457678
0.00406612
0.00394731
0.00399111
0.00408339
0.00424643
0.00452154
0.00475919
0.00495352
0.00521183
0.00550248
0.00588893
0.00637763
0.00672154
0.00690087
0.00699207
0.00709056
0.00714672
0.00725477
0.00733525
0.00744459
0.0075186
0.00763163
0.00456091
0.00405442
0.00397548
0.00408648
0.00419957
0.00437072
0.0046343
0.0048725
0.00506585
0.00532424
0.00561053
0.00599979
0.00648403
0.00681641
0.00699421
0.00710104
0.00716089
0.00722584
0.0073183
0.00742228
0.00749441
0.00762163
0.00774474
0.00454603
0.00403948
0.00403516
0.0041853
0.00430395
0.00448742
0.00475233
0.00497832
0.0051723
0.00542726
0.00570756
0.00610753
0.00658593
0.0069073
0.00708134
0.00715882
0.00725317
0.00732145
0.00738224
0.00749245
0.00761638
0.00775072
0.00790811
0.00452839
0.00403871
0.00410242
0.00428859
0.00441716
0.0046091
0.00486191
0.0050791
0.00527055
0.00551954
0.00579497
0.00620598
0.00667396
0.00698743
0.00717559
0.00727887
0.00734508
0.00738011
0.00748356
0.00762384
0.00775491
0.00794399
0.00828932
0.00451041
0.00406525
0.00418071
0.00439522
0.00452382
0.00472369
0.0049693
0.00517221
0.00536032
0.00560237
0.00587696
0.00629838
0.00676288
0.00708013
0.00726872
0.00735356
0.00743847
0.00754125
0.00765789
0.00779136
0.00795367
0.00840277
0.00906179
0.00449882
0.00411564
0.00425752
0.00449532
0.00463517
0.00483336
0.00506741
0.00525725
0.00544062
0.00567424
0.00594651
0.00638306
0.0068345
0.00714664
0.00735731
0.00747306
0.00760959
0.00772113
0.00778882
0.00811631
0.00853175
0.00926016
0.0100037
0.00448763
0.00419224
0.00434663
0.00460157
0.00473173
0.00493457
0.00515936
0.00533251
0.00551209
0.00573765
0.00601301
0.00646246
0.00691239
0.00725141
0.00748794
0.00763618
0.00778665
0.00791424
0.0082425
0.00868647
0.00936583
0.0101924
0.0114539
0.00446605
0.00425942
0.00441936
0.00469537
0.00483587
0.00503098
0.00524126
0.00540165
0.00557443
0.00579207
0.00607017
0.00653361
0.00697491
0.00731103
0.00756528
0.00772647
0.00795508
0.00826251
0.00872702
0.00961317
0.0103253
0.0118957
0.0147329
0.00446541
0.00436401
0.00450757
0.00479087
0.00491901
0.0051145
0.00531485
0.00546099
0.00562904
0.00583925
0.00612208
0.00660105
0.00703981
0.00742498
0.0077291
0.00796336
0.00830325
0.00883291
0.00955299
0.010586
0.0121974
0.0160001
0.0198826
0.00447755
0.00443648
0.00458098
0.00488112
0.00500896
0.00519113
0.00538161
0.00551292
0.00567604
0.00587997
0.00617048
0.00666188
0.00710131
0.00748562
0.00781747
0.00812644
0.00871836
0.00927311
0.0105777
0.0123997
0.016238
0.0210534
0.0244481
0.00451692
0.00454643
0.00466129
0.0049621
0.00508234
0.00526033
0.00543979
0.00556142
0.00571708
0.0059151
0.00621242
0.00671926
0.00715864
0.00760469
0.00799656
0.00842527
0.00905119
0.0102563
0.0123185
0.015975
0.0210367
0.0253183
0.0277837
0.00455409
0.00462886
0.00473479
0.00503928
0.00515495
0.00532091
0.00548952
0.00559999
0.00575207
0.00594563
0.00625287
0.00677292
0.0072183
0.00766525
0.00810118
0.00864348
0.00985577
0.0115928
0.0151732
0.0202398
0.0252785
0.0279774
0.0298013
0.00461464
0.00472452
0.0048133
0.00511257
0.00522308
0.0053737
0.00553781
0.00563669
0.00578317
0.00597226
0.00628926
0.00682281
0.00727584
0.00778716
0.00830705
0.00914198
0.0107812
0.0137404
0.0188579
0.024383
0.0284311
0.0300577
0.0320618
0.00466177
0.00480686
0.00488366
0.00517827
0.00528091
0.00541786
0.00557413
0.00567038
0.0058093
0.00599583
0.00632421
0.00687241
0.00733438
0.00785337
0.00846662
0.0095584
0.0123057
0.0166647
0.0226739
0.0275711
0.0301899
0.031057
0.0336831
0.00473524
0.00489322
0.0049601
0.00523042
0.00533371
0.00546218
0.0056071
0.00569424
0.00583332
0.00601691
0.00635694
0.00691754
0.0073916
0.00797466
0.00869054
0.0105008
0.0142411
0.0198211
0.0260069
0.029631
0.0311202
0.03179
0.0355139
0.00478733
0.00495801
0.00502888
0.00528808
0.00538726
0.00549324
0.0056376
0.0057215
0.00585328
0.00603533
0.00638887
0.00696546
0.0074539
0.00806317
0.00905855
0.0114474
0.016964
0.0234931
0.0284464
0.0306822
0.0315687
0.0325436
0.0390492
0.00486259
0.00503299
0.00509528
0.00533137
0.00542437
0.00552136
0.00565776
0.00574185
0.0058722
0.00605397
0.00642114
0.00700836
0.00751133
0.00820141
0.00941125
0.0131721
0.0199032
0.0266659
0.0300981
0.0312716
0.0317322
0.0334037
0.0405329
0.00491506
0.00508097
0.00516171
0.00536434
0.00545454
0.00553315
0.00566895
0.00575536
0.00588778
0.00606823
0.00645115
0.00705733
0.00757318
0.00829562
0.00992818
0.0150597
0.0229604
0.0290264
0.0311157
0.031574
0.0318481
0.0341679
0.0454711
0.00498291
0.00514135
0.00521643
0.00539382
0.00548272
0.00555806
0.00567381
0.00576524
0.00590295
0.00608562
0.00648392
0.00709843
0.00764111
0.00852279
0.0108708
0.0174031
0.0260379
0.0309551
0.032094
0.0318743
0.032165
0.0349261
0.0455647
0.00503128
0.00514527
0.00526918
0.00541967
0.00549993
0.00557813
0.00567902
0.0057716
0.00591556
0.00609832
0.00651737
0.00715122
0.00770793
0.00867734
0.0114534
0.0197247
0.0290217
0.032687
0.0328455
0.0323316
0.0323541
0.035444
0.04461
0.00508638
0.00515241
0.00531522
0.00543725
0.00551451
0.00558112
0.0056825
0.0057828
0.00592775
0.00611355
0.00654857
0.00719128
0.00777949
0.00888591
0.0125999
0.0225807
0.0308968
0.0336388
0.0334436
0.032772
0.033017
0.036458
0.048605
0.00512742
0.00517851
0.00535581
0.00545868
0.00552846
0.00559205
0.00568705
0.00579202
0.00593771
0.00612645
0.00658519
0.00724567
0.00786114
0.00924446
0.013834
0.0248379
0.0326768
0.0351096
0.0347748
0.0335437
0.0339631
0.0372416
0.0473392
0.00517125
0.00520248
0.00538874
0.00547217
0.00554571
0.00560755
0.00569212
0.00580144
0.00594763
0.00614031
0.00662446
0.00728955
0.00795406
0.00946925
0.0148531
0.0270869
0.0347577
0.0370115
0.0358741
0.0347641
0.0350974
0.0377534
0.0474773
0.00520573
0.00523663
0.00542244
0.00549705
0.00556283
0.00562684
0.00569365
0.00580711
0.00595598
0.00615342
0.00665579
0.00734213
0.00803683
0.00985416
0.0164861
0.0299571
0.0367241
0.0383138
0.0377662
0.0358478
0.0364288
0.0391614
0.0466679
0.00524292
0.0052639
0.0054501
0.00551684
0.00558585
0.00564609
0.00569924
0.0058157
0.00596449
0.00616617
0.00670041
0.00738216
0.0081273
0.0103088
0.0180378
0.0319921
0.0378001
0.0399647
0.0397049
0.0373602
0.0396146
0.0427954
0.0408399
0.00528041
0.0053004
0.00547414
0.00554282
0.00560442
0.00566509
0.00571066
0.00582196
0.00597208
0.00617827
0.00674152
0.00743428
0.00824003
0.010672
0.01934
0.0331235
0.0398238
0.042157
0.0413448
0.0397524
0.0403592
0.0414634
0.035105
0.00531269
0.00533041
0.0054972
0.00556591
0.00562654
0.00568519
0.00572358
0.00583005
0.00597906
0.00618947
0.00676654
0.0074607
0.00831393
0.0110866
0.0208395
0.035413
0.0426467
0.0437634
0.0431065
0.0395271
0.0385593
0.0375636
0.0305205
0.0053485
0.00536315
0.00551554
0.00558977
0.00564602
0.00570419
0.00573817
0.00583855
0.00598514
0.00619737
0.00680775
0.00749634
0.00838515
0.0115355
0.0222758
0.037367
0.043824
0.0444934
0.0433161
0.0371122
0.0336659
0.0318121
0.0261588
0.00538272
0.00539457
0.00553847
0.00561441
0.00566724
0.00572472
0.00575301
0.00584809
0.00599203
0.00620982
0.00684159
0.00753096
0.00846474
0.0118703
0.0231051
0.0379852
0.0440317
0.0443915
0.0415809
0.0324292
0.0287691
0.0267433
0.0223698
0.00541745
0.00542749
0.00555918
0.00563754
0.00568823
0.00574399
0.00576811
0.00585783
0.00599663
0.00621581
0.00686581
0.00754737
0.00853445
0.0120382
0.0234525
0.0381692
0.0435495
0.0421834
0.0366669
0.0273228
0.0237542
0.0218
0.0189178
0.00545381
0.00546066
0.00558338
0.00566236
0.00570928
0.00576376
0.00578429
0.00586868
0.00600301
0.00622659
0.00689711
0.00757915
0.00857077
0.0119447
0.023014
0.0369525
0.0395381
0.0362483
0.0306533
0.0226469
0.0196383
0.0180135
0.0160639
0.00548609
0.00549378
0.00560685
0.00568404
0.00572902
0.00578117
0.00579848
0.00587811
0.00600741
0.00623251
0.00692413
0.00759994
0.0085269
0.0114615
0.021033
0.0328251
0.0333454
0.0305024
0.0256565
0.0191457
0.0165193
0.0152001
0.0140871
0.00551775
0.00552446
0.00563017
0.0057054
0.00574693
0.00579711
0.00581299
0.00588726
0.00601133
0.00624203
0.00692883
0.00760713
0.00842712
0.0108337
0.0185185
0.027928
0.0271341
0.0250279
0.0212988
0.0161283
0.0139967
0.0128962
0.012535
0.00554775
0.00555686
0.00565437
0.00572578
0.00576559
0.0058133
0.00582676
0.00589625
0.00601465
0.0062488
0.00693174
0.00760953
0.00829911
0.0101898
0.0160734
0.0229567
0.0218202
0.0204483
0.0177133
0.0138654
0.0122629
0.0113526
0.0112694
0.00557747
0.00558795
0.00567972
0.00574631
0.00578304
0.00582801
0.00584116
0.00590545
0.00601741
0.00625675
0.00692154
0.00760425
0.00816276
0.00961125
0.0139079
0.0188953
0.0175812
0.0168558
0.0147911
0.0120546
0.010857
0.0102497
0.0102713
0.00560817
0.00562032
0.00570465
0.00576621
0.00580082
0.00584301
0.00585474
0.0059144
0.00601961
0.00626366
0.006905
0.00755904
0.00803034
0.00909338
0.0121572
0.0155931
0.0144109
0.0140641
0.012782
0.0107921
0.00996982
0.00962218
0.00951617
0.00563478
0.00565026
0.00572945
0.00578497
0.00581747
0.00585666
0.00586885
0.00592346
0.00602164
0.00626923
0.00686646
0.00752008
0.00788297
0.0086793
0.0107812
0.0131002
0.0122659
0.012209
0.0112327
0.00991364
0.00947544
0.0092688
0.00942798
0.00566613
0.0056811
0.00575592
0.00580494
0.00583431
0.00587092
0.00588209
0.00593334
0.00602357
0.00627353
0.00682003
0.00745033
0.0077693
0.00833686
0.00983576
0.0116241
0.0108677
0.0107992
0.0103177
0.00979088
0.00916216
0.00911556
0.00919014
0.00569095
0.00571081
0.00577851
0.00582251
0.00585094
0.00588362
0.0058958
0.00594174
0.00602568
0.00627584
0.00679063
0.00737953
0.00763416
0.00806583
0.0090917
0.0106595
0.00993039
0.0100671
0.00969985
0.00966602
0.00920637
0.00900961
0.00914362
0.0057185
0.00573681
0.00580255
0.00584074
0.00586503
0.00589672
0.00590927
0.00595268
0.00602809
0.00627593
0.00675544
0.00731701
0.00752413
0.0078413
0.00861444
0.0100278
0.00981581
0.0097363
0.0095777
0.0095433
0.0090931
0.00907576
0.00910363
0.00574592
0.005766
0.00582648
0.00585763
0.00588262
0.00590994
0.00592128
0.00596062
0.00603063
0.00627583
0.00672966
0.00723632
0.0074304
0.00768584
0.00835194
0.00995378
0.00970256
0.00952032
0.00948293
0.00948874
0.00915866
0.00910377
0.0090475
0.00576503
0.00578936
0.00584372
0.00587586
0.0058949
0.00592009
0.00593463
0.00597103
0.00603392
0.0062758
0.00672161
0.0071727
0.00732015
0.00752989
0.00820181
0.00987948
0.00959261
0.00938021
0.00953098
0.0093151
0.00907447
0.0090513
0.00912056
0.0057896
0.0058123
0.00586412
0.00588697
0.0059088
0.00593317
0.00594677
0.00597984
0.00603695
0.00627491
0.00670846
0.00711388
0.00725073
0.00742181
0.00811641
0.00972982
0.00953411
0.00926978
0.00943922
0.00932337
0.00910005
0.00902934
0.00911297
0.00580975
0.00583151
0.00588156
0.00590471
0.00592164
0.00594295
0.00595569
0.00598696
0.00604078
0.00627221
0.00669563
0.0070716
0.00717817
0.00734856
0.00806112
0.00962855
0.00949029
0.00932641
0.00950982
0.00932795
0.00909292
0.00905428
0.00911037
0.00582213
0.0058532
0.00589051
0.00591467
0.00593156
0.00594587
0.00596743
0.00599637
0.00604455
0.00627033
0.006681
0.00703575
0.00716904
0.00731517
0.00801794
0.00966094
0.00935957
0.00933917
0.00949276
0.00932311
0.00910459
0.00908236
0.00904418
0.00582163
0.00586132
0.00589793
0.0059218
0.00593905
0.00595372
0.00597677
0.00600214
0.00604807
0.00626758
0.00666713
0.00702256
0.00715927
0.00733849
0.00804158
0.00964627
0.00942537
0.00925006
0.00950392
0.00928833
0.009121
0.00897733
0.00906556
0.00582232
0.0058652
0.00590496
0.0059206
0.00593875
0.00595224
0.00597644
0.00600473
0.00605241
0.0062671
0.00665333
0.00700482
0.00714899
0.00734476
0.00802753
0.00971177
0.00942327
0.00932933
0.00949969
0.00940305
0.00901621
0.0090762
0.00902886
0.00582273
0.00586779
0.00590353
0.00592086
0.0059395
0.00595358
0.00597713
0.00600704
0.00605573
0.00626588
0.00664664
0.00699294
0.00714037
0.00734298
0.00802823
0.00977073
0.00941546
0.00929371
0.00950211
0.00939831
0.00910782
0.00901558
0.00903024
0.00582274
0.00586957
0.00590753
0.00592024
0.00594521
0.00595381
0.0059816
0.00600907
0.00605999
0.00626193
0.0066367
0.00698718
0.00713691
0.00734818
0.00804205
0.00989996
0.00948342
0.00934104
0.00947732
0.00933485
0.00905354
0.00902055
0.00908969
0.00582361
0.00587211
0.00590381
0.00592421
0.00594358
0.00595413
0.00598052
0.00600747
0.00606016
0.00625743
0.00662961
0.00697897
0.00711669
0.00734652
0.0080547
0.0099691
0.0096695
0.00948167
0.00951752
0.00933854
0.00909047
0.00909174
0.0091837
0.00582897
0.00586931
0.00590401
0.00592144
0.00594584
0.00595419
0.00598264
0.00600842
0.006063
0.0062513
0.00662744
0.00698421
0.0071275
0.00735548
0.00808331
0.0101188
0.00988245
0.00967979
0.00964424
0.00942611
0.00919211
0.00919755
0.00931981
0.00582392
0.00586841
0.00590569
0.00592044
0.00594264
0.0059543
0.00598009
0.00600741
0.00606176
0.00624377
0.00662263
0.00698647
0.0071237
0.00735232
0.00819357
0.010231
0.0101492
0.010009
0.00986107
0.00950246
0.00927327
0.00930855
0.00946335
0.00582442
0.00586865
0.00590583
0.00591972
0.00594255
0.00595447
0.00597971
0.00600774
0.00606168
0.00623676
0.0066234
0.00698821
0.00714053
0.0073559
0.00838988
0.0104221
0.0104164
0.0102701
0.0100705
0.00964516
0.00941078
0.00947731
0.00969728
0.00582416
0.00587137
0.00590069
0.00592175
0.00594402
0.00595613
0.0059797
0.00600723
0.00606139
0.00622689
0.00662073
0.00699049
0.00714055
0.00736672
0.00867613
0.0106238
0.0107484
0.010659
0.0103714
0.00980491
0.00957891
0.00968458
0.00992705
0.00582472
0.00586575
0.00589986
0.00592246
0.00594011
0.00595264
0.005979
0.00600541
0.00606115
0.00621849
0.00661905
0.00699206
0.0071462
0.00737419
0.0090817
0.0109519
0.0110629
0.0108919
0.010605
0.00998861
0.00975735
0.00989613
0.0102205
0.00582434
0.00586728
0.00589795
0.0059175
0.00594015
0.00595561
0.00597839
0.00600488
0.00606251
0.00620897
0.00662209
0.00699379
0.00714993
0.00737221
0.00943666
0.0113289
0.0114503
0.0112932
0.0108656
0.0102087
0.0100115
0.0101844
0.0105724
0.00582417
0.00586514
0.00589698
0.00591668
0.00594272
0.0059521
0.00597543
0.00600479
0.00606035
0.00620199
0.00662274
0.00698267
0.00714317
0.00736172
0.0100097
0.0117696
0.0118036
0.0114996
0.0111071
0.0104755
0.0102222
0.0103747
0.0107675
0.00582186
0.00586219
0.00589938
0.00591607
0.00594352
0.00595054
0.00597653
0.00600515
0.0060602
0.00619488
0.00662511
0.00698951
0.00715058
0.00736307
0.0103736
0.0122118
0.0122553
0.0119114
0.0112508
0.0107393
0.010536
0.0107349
0.0112045
0.00582097
0.00586129
0.00589684
0.00591671
0.0059431
0.00594959
0.00597239
0.00600149
0.00606077
0.00619087
0.00663164
0.00698585
0.00715889
0.00738959
0.0110079
0.0126675
0.0126331
0.0121728
0.0114876
0.0110537
0.0107894
0.010948
0.011418
0.00581755
0.00585865
0.0058951
0.00591059
0.00593849
0.0059517
0.00597559
0.00600071
0.00606158
0.00618548
0.00664491
0.00698983
0.00718379
0.00745228
0.0113464
0.0131538
0.0130867
0.0125606
0.0117834
0.0113858
0.0110899
0.0113183
0.0118464
0.00581708
0.0058572
0.00589172
0.00590985
0.00593767
0.00595186
0.00597182
0.00600093
0.00606023
0.00618203
0.00665485
0.00699931
0.00720139
0.00750374
0.0119873
0.0135168
0.0135138
0.0129095
0.0120072
0.0116574
0.0114791
0.0116715
0.0121138
0.00581413
0.00585347
0.00589067
0.00591238
0.00593127
0.00594841
0.00597375
0.00599639
0.00605843
0.00618143
0.00666917
0.00700201
0.00721754
0.00757893
0.0123225
0.013943
0.013898
0.0133509
0.012451
0.0120592
0.0116889
0.0119249
0.0126116
0.00581332
0.0058524
0.00588201
0.00591198
0.00593027
0.00594843
0.00597379
0.00599535
0.00605605
0.006181
0.00668028
0.00700759
0.00722916
0.00764169
0.0128956
0.0142061
0.0143018
0.0136778
0.0127535
0.012463
0.0121938
0.0125309
0.0129351
0.00581603
0.00584913
0.00588131
0.00590919
0.0059313
0.00594681
0.00597112
0.0059955
0.0060543
0.00618057
0.00669326
0.00701158
0.00724557
0.00772786
0.0134106
0.0146446
0.0146563
0.0141447
0.0131749
0.0128635
0.0124982
0.0128349
0.0137185
0.00581497
0.00584808
0.00587841
0.00590687
0.00593218
0.00593968
0.00596899
0.00599029
0.00605292
0.00618035
0.00670878
0.00701115
0.00726182
0.00786076
0.0139206
0.0148928
0.0151093
0.0144318
0.0134352
0.0133318
0.0130274
0.0138805
0.0145806
0.00580889
0.00585151
0.00587698
0.0059022
0.00592832
0.00593792
0.00596521
0.00598971
0.00605258
0.00618072
0.00673046
0.00701773
0.00728376
0.00797509
0.0147388
0.0153112
0.0154897
0.0148175
0.0138374
0.0135585
0.0135871
0.0145093
0.0158926
0.00580362
0.00584971
0.00587756
0.00589575
0.00592495
0.00593826
0.00596216
0.00599198
0.00604839
0.00618397
0.00674945
0.00703864
0.00730906
0.00818379
0.0152787
0.0156078
0.015779
0.0151516
0.0141472
0.014064
0.0142475
0.0159188
0.0171753
0.00579495
0.00584401
0.00587947
0.00589355
0.00592067
0.00593957
0.00596188
0.00599022
0.00604764
0.0061861
0.00677199
0.00704958
0.00736459
0.00829573
0.0160183
0.0159853
0.016279
0.0155306
0.0143269
0.0143405
0.0152355
0.0176315
0.0200001
0.0057788
0.00583905
0.00587746
0.00588936
0.00591258
0.00593767
0.00595442
0.00598782
0.00604766
0.0061933
0.00680048
0.00708091
0.00741853
0.00858861
0.0165452
0.0164047
0.0166968
0.0158512
0.0148129
0.0154258
0.0165817
0.0195227
0.0219468
0.00577465
0.00583089
0.00587377
0.00588721
0.00590225
0.00593558
0.00595343
0.00598065
0.00604777
0.0061955
0.00681471
0.00709814
0.00745118
0.00872186
0.0172087
0.0167849
0.0170559
0.0161733
0.0152942
0.0158593
0.0181984
0.0217554
0.025751
0.00577136
0.00581585
0.00586788
0.00588969
0.00589926
0.00593163
0.00595582
0.00597943
0.00604844
0.00620397
0.00683195
0.00713904
0.00748781
0.00903156
0.0176671
0.0171302
0.0173914
0.016293
0.0159806
0.0173932
0.0204579
0.0225708
0.0270734
0.00577684
0.00581242
0.00586277
0.0058882
0.00589844
0.00592633
0.00595507
0.00598054
0.00604407
0.00620133
0.00682709
0.00717129
0.00750583
0.00918604
0.0173921
0.0174473
0.0175771
0.0166227
0.0168988
0.0186681
0.0209502
0.0241976
0.0289541
0.00577357
0.00581473
0.00585338
0.00588107
0.00589782
0.00592177
0.00595197
0.00597884
0.00603893
0.00619625
0.00680575
0.0071836
0.00753786
0.00929202
0.017293
0.0177959
0.0178477
0.0170644
0.0176175
0.0192658
0.0211685
0.0242555
0.0285154
0.00576447
0.00580728
0.00584084
0.00586686
0.00588583
0.00590974
0.00594035
0.00597208
0.00603228
0.00618792
0.00677031
0.00717924
0.00760791
0.00937893
0.0168461
0.0180264
0.0180237
0.0174441
0.0181657
0.0194446
0.0217989
0.0245194
0.0285728
0.00575239
0.00579469
0.00582815
0.0058466
0.00587468
0.00589979
0.00593165
0.00596185
0.00602448
0.00617667
0.00672827
0.00717599
0.00764899
0.00957112
0.0166063
0.0182398
0.0183614
0.0180689
0.0186803
0.0198777
0.0215578
0.0249139
0.0288281
0.00573642
0.00577755
0.00581905
0.00583964
0.00586371
0.00588882
0.00591602
0.00594486
0.00601419
0.00616159
0.0066801
0.00717294
0.00773338
0.00951089
0.0158253
0.0185945
0.018613
0.0183235
0.0189892
0.020316
0.0214545
0.0247203
0.028775
0.00571683
0.00575123
0.00580362
0.00584243
0.00585508
0.00587863
0.00590246
0.00592225
0.00600336
0.00614439
0.00662991
0.00715548
0.00783414
0.009937
0.0158409
0.0187338
0.0192078
0.0192205
0.0195997
0.0204651
0.0216144
0.0238413
0.0266452
0.00569205
0.00571619
0.00578843
0.00583337
0.00584334
0.00586912
0.00588884
0.00591341
0.00599003
0.00612398
0.00657725
0.00713947
0.00797099
0.00992372
0.0161362
0.0193552
0.0196336
0.0196214
0.0202774
0.021448
0.0226322
0.0243627
0.02678
0.00565517
0.00570343
0.00576722
0.00581891
0.00582763
0.00585353
0.00588287
0.00591382
0.00597616
0.00610343
0.00652705
0.00712262
0.0080286
0.0105411
0.0163999
0.0193647
0.0205967
0.0207356
0.0212991
0.0220735
0.0234559
0.0258472
0.0279624
0.00560675
0.00570392
0.00574327
0.00579829
0.0058037
0.00582967
0.0058654
0.00590003
0.00595779
0.00608
0.0064795
0.00705089
0.00811812
0.0110186
0.0173925
0.0200918
0.0216413
0.0219564
0.0220678
0.0232726
0.0243365
0.0261319
0.0281216
0.00558885
0.00568753
0.00572381
0.00577494
0.00577837
0.00580421
0.00584496
0.00588169
0.00593849
0.00605702
0.00643564
0.00702425
0.00826774
0.0119962
0.018333
0.0213785
0.0224831
0.023734
0.023862
0.0244449
0.0258065
0.0282209
0.0311193
0.00558836
0.00566016
0.00569741
0.00574497
0.00574638
0.00577267
0.00581788
0.00585535
0.00591288
0.00602939
0.00638858
0.00704513
0.00852546
0.012847
0.0195991
0.0226503
0.0241217
0.0246559
0.0246876
0.0258864
0.0279704
0.0305671
0.0327295
0.00556325
0.00562798
0.00566727
0.0057125
0.0057127
0.00573905
0.00578895
0.00582708
0.00588628
0.00600192
0.0063452
0.00701229
0.00836497
0.0138178
0.0218849
0.0244934
0.0253124
0.027161
0.0273048
0.0287863
0.0306502
0.0324998
0.0351325
0.00552314
0.00558644
0.00562779
0.00567154
0.00567757
0.00570451
0.00575219
0.00578985
0.00585074
0.00596679
0.00629464
0.00688967
0.00856452
0.0144715
0.0248841
0.0272159
0.0274899
0.0291238
0.0304069
0.0319775
0.0327594
0.0359477
0.0405376
0.00547635
0.00554107
0.00558428
0.00562765
0.0056422
0.0056702
0.00571319
0.0057511
0.00581404
0.0059312
0.0062484
0.00684976
0.00824274
0.0145059
0.0280387
0.0304238
0.0303267
0.0321946
0.0319454
0.0342264
0.0389502
0.0418258
0.0428875
0.00541779
0.00548446
0.00552842
0.0055723
0.00559515
0.00562404
0.00566237
0.00570021
0.00576487
0.00588372
0.00618716
0.00685063
0.00878469
0.0153431
0.0293796
0.0326594
0.0320881
0.0345217
0.0368606
0.0389896
0.0429315
0.0461265
0.0528691
0.00535491
0.00542469
0.00546874
0.00551419
0.00554357
0.00557344
0.00560906
0.00564771
0.00571399
0.00583454
0.00612716
0.00679461
0.00930262
0.01672
0.0369938
0.0414391
0.0405466
0.0427649
0.0431524
0.0423633
0.0476054
0.0537151
0.0571444
0.00527909
0.0053506
0.00539381
0.00544133
0.00547535
0.00550594
0.00553996
0.00557853
0.00564547
0.00576696
0.00604689
0.0067325
0.0102438
0.0167725
0.0421912
0.046165
0.0462769
0.0489761
0.0509177
0.0539178
0.0572086
0.0591802
0.0715988
0.00520033
0.00527414
0.00531617
0.00536667
0.00540372
0.00543526
0.00546909
0.00550818
0.00557493
0.00569613
0.00596213
0.0067273
0.00953614
0.0194887
0.0516903
0.0540003
0.0522802
0.0546253
0.0617498
0.0692746
0.0675984
0.0791782
0.0785618
0.00510577
0.00517895
0.00521975
0.0052728
0.00531141
0.00534351
0.00537706
0.00541528
0.0054801
0.00559848
0.00584782
0.00650766
0.00934163
0.0171218
0.0530288
0.0626057
0.0580275
0.0585089
0.0630848
0.0807624
0.0778587
0.0833591
0.102148
0.00500947
0.00508292
0.00512347
0.00517878
0.00521818
0.00525139
0.00528518
0.00532271
0.00538487
0.00549861
0.00572641
0.00636243
0.00942349
0.0238788
0.0634105
0.0675798
0.0634675
0.0709383
0.0806588
0.0886036
0.0889634
0.112735
0.111408
0.0048919
0.00496283
0.00500386
0.00505928
0.00509835
0.00513165
0.00516461
0.00520051
0.00525748
0.00536302
0.00557311
0.00620647
0.00902205
0.0224471
0.0637776
0.0748498
0.0663379
0.0791725
0.0930525
0.103667
0.119378
0.123007
0.116544
0.00477507
0.00484532
0.00488865
0.00494299
0.00498142
0.00501588
0.00504829
0.005083
0.00513488
0.00523114
0.00541888
0.00601646
0.00874524
0.0217082
0.0686534
0.078262
0.0726001
0.0969458
0.107479
0.115026
0.135266
0.122264
0.123518
0.0046295
0.00469714
0.00474208
0.00479267
0.00482928
0.00486262
0.00489282
0.00492558
0.00497084
0.0050554
0.00521289
0.00579138
0.00905901
0.022278
0.0619953
0.0807063
0.0773536
0.107204
0.114546
0.139137
0.133492
0.132343
0.106782
0.00449126
0.00455857
0.00460655
0.00465301
0.00468798
0.00472164
0.00475011
0.00478178
0.00482201
0.00489688
0.00503143
0.00544586
0.00880932