/*--------------------------------*- C++ -*----------------------------------*\
  =========                 |
  \\      /  F ield         | OpenFOAM: The Open Source CFD Toolbox
   \\    /   O peration     | Website:  https://openfoam.org
    \\  /    A nd           | Version:  7
     \\/     M anipulation  |
\*---------------------------------------------------------------------------*/
FoamFile
{
    version     2.0;
    format      ascii;
    class       volScalarField;
    location    "50";
    object      nut;
}
// * * * * * * * * * * * * * * * * * * * * * * * * * * * * * * * * * * * * * //

dimensions      [0 2 -1 0 0 0 0];

internalField   nonuniform List<scalar> 
12842
(
0.0018104
0.00179605
0.00177757
0.00177092
0.00175688
0.00176437
0.00175936
0.00176405
0.00175785
0.00176219
0.0017585
0.00176598
0.00177013
0.00153039
0.00073385
0.000407393
0.000261255
0.000185908
0.000141133
0.000111831
9.23638e-05
7.89811e-05
6.91042e-05
0.00180707
0.00179884
0.00178444
0.0017867
0.00177155
0.00177019
0.00176125
0.00176357
0.0017575
0.00176138
0.00175788
0.001766
0.00177031
0.001502
0.000721882
0.000402168
0.000258499
0.000184446
0.000140456
0.000111567
9.24574e-05
7.96452e-05
6.95484e-05
0.00180925
0.00178698
0.00177336
0.00177171
0.00176715
0.00176374
0.00175431
0.00176041
0.00175649
0.00175936
0.00175682
0.00176544
0.00177063
0.00145798
0.000704964
0.000395454
0.000255418
0.00018328
0.000140278
0.000111758
9.29758e-05
8.09762e-05
7.09381e-05
0.00180611
0.00179908
0.00178062
0.00177932
0.00177637
0.0017709
0.00175544
0.0017577
0.00175427
0.00175842
0.00175662
0.00176538
0.00177149
0.0014029
0.000683433
0.000386505
0.000252085
0.000182232
0.000140167
0.000112741
9.43156e-05
8.297e-05
7.29484e-05
0.00180461
0.00178135
0.00177638
0.00176603
0.00176956
0.00177027
0.00175763
0.00175915
0.00175401
0.0017596
0.00175745
0.00176452
0.00177201
0.00135122
0.000664635
0.000379604
0.000249899
0.000182344
0.000141849
0.00011472
9.65726e-05
8.57048e-05
7.56106e-05
0.00180604
0.00178927
0.00177851
0.00176756
0.00177273
0.00176806
0.00175733
0.00175877
0.00175334
0.00175947
0.00175749
0.00176457
0.00177299
0.00131107
0.000650393
0.000375346
0.000250219
0.000183321
0.000143574
0.000117375
9.91437e-05
8.89381e-05
7.86097e-05
0.00180115
0.00178166
0.00177482
0.00176479
0.00177027
0.00176808
0.00175896
0.00175918
0.00175457
0.00176165
0.00175916
0.00176576
0.00177733
0.00129075
0.000645039
0.000377758
0.000254157
0.000187569
0.000147649
0.00012134
0.000102902
9.26861e-05
8.19425e-05
0.00180267
0.00178066
0.00177697
0.00176297
0.00176561
0.00176268
0.00175934
0.0017565
0.00175547
0.00176142
0.0017591
0.00176655
0.00178436
0.00127676
0.000647218
0.000384494
0.000261876
0.000194579
0.000153052
0.000126252
0.000106928
9.66436e-05
8.53618e-05
0.00179934
0.00178011
0.00177206
0.00176516
0.00176777
0.00176116
0.0017602
0.00175634
0.00175535
0.00176144
0.00175906
0.00176961
0.00179946
0.00126395
0.000651272
0.000394878
0.000272663
0.000204615
0.000160966
0.000132826
0.000112497
0.000101623
8.94029e-05
0.00179822
0.00177688
0.00177315
0.00176564
0.00176356
0.00175781
0.00175874
0.00175491
0.00175588
0.00176109
0.00176086
0.00177712
0.0018259
0.00125548
0.00065253
0.000398391
0.000277205
0.000209706
0.000165597
0.000137221
0.000116207
0.000105082
9.19369e-05
0.00179579
0.00177535
0.001768
0.00176622
0.0017625
0.00175668
0.00175832
0.00175379
0.0017555
0.00176093
0.00176795
0.00180005
0.00186212
0.00124068
0.000655487
0.000407384
0.000286153
0.000217698
0.000171747
0.000142306
0.000120352
0.000108724
9.47965e-05
0.00179646
0.00177344
0.00177023
0.00176641
0.00176142
0.00175488
0.0017574
0.00175192
0.0017551
0.00175867
0.00178305
0.00182997
0.00190838
0.00123441
0.000663906
0.000417075
0.000295705
0.000225744
0.000178496
0.000147756
0.000124663
0.000112314
9.76079e-05
0.00179197
0.00177109
0.00176576
0.00176638
0.00175887
0.00175357
0.00175484
0.00175249
0.00175404
0.00176015
0.00180171
0.00186748
0.00196163
0.00123399
0.000679906
0.000434649
0.00030891
0.000235775
0.000185524
0.000153347
0.000128908
0.00011581
0.000100396
0.00179385
0.00176977
0.00176651
0.00176644
0.00175757
0.00175296
0.00175382
0.00175074
0.00175663
0.00176995
0.001829
0.00191248
0.00202226
0.0012516
0.000703805
0.000449494
0.000321167
0.000244718
0.000192917
0.00015876
0.000133125
0.000118985
0.000102902
0.00178992
0.00176618
0.00176577
0.00176521
0.00175507
0.00175127
0.00175239
0.00174847
0.00176154
0.00179082
0.00186183
0.0019582
0.00207288
0.00128494
0.000734709
0.000474177
0.000337133
0.000255905
0.000200417
0.000164649
0.000137555
0.000122489
0.000105848
0.0017905
0.00176558
0.00176409
0.00176547
0.00175378
0.00175064
0.00175185
0.00175683
0.00178298
0.00182548
0.00190234
0.00200546
0.00211682
0.00132985
0.000767362
0.000493231
0.000352584
0.000266358
0.000208514
0.000170676
0.000142255
0.000125824
0.000108629
0.00178811
0.00176129
0.0017658
0.00176336
0.00175124
0.00174969
0.00175131
0.00176414
0.00180763
0.00186029
0.00194319
0.00203741
0.00214414
0.00139153
0.000811952
0.000524773
0.000370795
0.000279277
0.000217669
0.000177517
0.000147687
0.000130285
0.000112675
0.00178808
0.00176016
0.00176389
0.00176425
0.00175006
0.00175
0.00175732
0.00179417
0.00184878
0.00190491
0.00197806
0.00206758
0.00216658
0.00145332
0.000851621
0.000549748
0.000392831
0.000293706
0.000227479
0.000185603
0.000154538
0.00013479
0.000117075
0.0017864
0.00175622
0.00176305
0.00176234
0.001748
0.00174868
0.00176038
0.00181953
0.00188017
0.0019444
0.0020096
0.0020814
0.00217363
0.00153773
0.000908962
0.000589447
0.000414623
0.000309847
0.000240653
0.000194718
0.000162531
0.000140862
0.000123365
0.00178588
0.00175546
0.00176476
0.00176321
0.00174784
0.00175011
0.00178071
0.0018635
0.00192482
0.00197757
0.00202892
0.00209344
0.00217614
0.00161392
0.000957601
0.000623506
0.00044724
0.000332385
0.000255311
0.000206116
0.000173138
0.000148064
0.000130705
0.00178476
0.00175198
0.00176032
0.00176173
0.00174624
0.00175461
0.0018058
0.00189607
0.0019552
0.0020041
0.00204604
0.00209306
0.00217086
0.00170678
0.00102356
0.000676459
0.000479855
0.000355554
0.000274398
0.000220204
0.000184812
0.000157331
0.00013998
0.00178398
0.00175074
0.0017598
0.00176453
0.00175251
0.00176987
0.0018502
0.00193739
0.00197846
0.00201798
0.00204878
0.00209134
0.00216005
0.00181225
0.00109322
0.000724283
0.000525249
0.000391407
0.000300223
0.000238307
0.000200054
0.000170069
0.000152569
0.00178303
0.00174981
0.0017589
0.00176166
0.00176475
0.00179011
0.00187339
0.00195394
0.00198846
0.00202902
0.00205237
0.00208234
0.00214916
0.00185526
0.00114453
0.000792906
0.000583012
0.000432572
0.000329809
0.000260322
0.000218438
0.000184717
0.000166111
0.00178223
0.00174996
0.00175658
0.0017686
0.00178153
0.00182989
0.0019061
0.00197003
0.00199909
0.00202925
0.0020435
0.00207187
0.00213071
0.00191874
0.00120457
0.000844968
0.000645923
0.000493575
0.000376511
0.000292475
0.000238464
0.000202729
0.000184313
0.00178192
0.00174766
0.00175388
0.00178538
0.00181863
0.00186663
0.00192122
0.00197522
0.00199343
0.00202358
0.00203483
0.00205865
0.00211629
0.0020067
0.0012698
0.000937916
0.000745611
0.000576881
0.000439948
0.000331196
0.000267452
0.00023002
0.000211498
0.00178077
0.00175168
0.00176209
0.00181945
0.00185963
0.00189477
0.00193166
0.00197075
0.00198598
0.00201328
0.00202124
0.00204727
0.00210022
0.00208248
0.0013428
0.00100829
0.000853759
0.000705662
0.000527556
0.00038704
0.000304923
0.000263135
0.000236032
0.00178075
0.00175205
0.0017779
0.00186324
0.00190117
0.00191183
0.00193185
0.00196383
0.00197348
0.00200055
0.00200847
0.00203488
0.00208555
0.00207758
0.00138105
0.00110615
0.00102663
0.000917307
0.000682376
0.00046692
0.00035202
0.000298721
0.000268667
0.00178078
0.0017544
0.00180917
0.00190242
0.00192361
0.00192244
0.0019327
0.00195293
0.00196198
0.00198607
0.00199419
0.00202488
0.00207443
0.00205166
0.00145721
0.00120444
0.00122834
0.00134019
0.00093479
0.000563686
0.000402647
0.000356318
0.000336149
0.00178091
0.00176035
0.0018431
0.00193075
0.00193901
0.00192744
0.00192754
0.00194075
0.00194835
0.00197107
0.00198078
0.0020154
0.00205953
0.00203349
0.00148203
0.00126742
0.00149418
0.00134195
0.00117333
0.00066243
0.000488782
0.000497462
0.000490609
0.00178046
0.00178012
0.00187758
0.00195309
0.00194468
0.00192819
0.00192243
0.00192922
0.00193585
0.00195632
0.00196842
0.002008
0.00205384
0.00202112
0.00154206
0.00136495
0.00148034
0.00129835
0.00111285
0.000790928
0.000683319
0.000604223
0.000534279
0.00178355
0.00180632
0.00190828
0.00195985
0.00194193
0.00192412
0.00191522
0.00191711
0.00192358
0.00194206
0.00195682
0.00200157
0.00203961
0.00199359
0.00154324
0.0013671
0.00145898
0.00123577
0.000999358
0.000820774
0.000652051
0.000554744
0.00049214
0.00178637
0.00184586
0.00193092
0.00196888
0.00193452
0.00191793
0.00190818
0.00190641
0.00191213
0.00192897
0.0019469
0.00199689
0.00203578
0.00199139
0.001591
0.00140011
0.00139047
0.00113512
0.000929997
0.000745421
0.000617814
0.00051914
0.000463769
0.00178595
0.00187706
0.00194294
0.00196395
0.00192595
0.00191153
0.0019011
0.00189739
0.00190184
0.00191705
0.00193863
0.00199321
0.00202585
0.00195816
0.00158164
0.00136794
0.00131669
0.00107549
0.000864385
0.000727027
0.000577599
0.000482041
0.000422333
0.00179269
0.00192264
0.0019495
0.00196545
0.00191278
0.00190232
0.0018943
0.0018892
0.00189275
0.0019065
0.0019311
0.00199049
0.00201941
0.00195621
0.00160873
0.00137171
0.00127325
0.00103874
0.000850843
0.000686009
0.000526613
0.000417481
0.000373536
0.00180499
0.00194384
0.00195005
0.00195949
0.00190351
0.00189529
0.00188932
0.00188223
0.00188463
0.00189738
0.00192603
0.00198899
0.00201381
0.00191903
0.00164212
0.00137021
0.00123229
0.000990462
0.000832712
0.000632298
0.000445755
0.000363583
0.000342998
0.00182867
0.00197255
0.00194641
0.00195886
0.00189181
0.00188768
0.00188497
0.00187733
0.00187814
0.00188963
0.00192137
0.00198785
0.00200631
0.00191458
0.00162595
0.00133329
0.00116854
0.000986908
0.00080847
0.000550438
0.000384106
0.000336456
0.000325081
0.0018451
0.00198099
0.00194295
0.00195028
0.0018828
0.00188153
0.00188067
0.00187189
0.00187219
0.00188312
0.00191846
0.00198723
0.00199857
0.00186855
0.00162221
0.00134298
0.00116335
0.000982244
0.000743859
0.00046345
0.000353703
0.000323781
0.00031862
0.00187044
0.0019862
0.00193748
0.0019506
0.00187531
0.00187508
0.00187904
0.00186762
0.00186779
0.00187784
0.00191652
0.00198787
0.00199444
0.00186393
0.00160281
0.00133948
0.00115949
0.000953587
0.000628833
0.000419308
0.000344095
0.000326749
0.00032969
0.00188098
0.00198472
0.00193331
0.00194105
0.00186815
0.00186918
0.00187593
0.00186492
0.00186358
0.0018736
0.00191575
0.00198691
0.00197918
0.00180718
0.00153748
0.00127832
0.00115765
0.000839998
0.000545608
0.000395123
0.000340677
0.000323681
0.000310639
0.00189703
0.0019775
0.0019287
0.00193347
0.00186014
0.00186441
0.00187188
0.00185918
0.00186066
0.00187026
0.00191542
0.00198941
0.00197748
0.00179368
0.00149956
0.00128263
0.00104911
0.000705664
0.000494639
0.000384899
0.000338064
0.0003228
0.000329651
0.00189387
0.00196586
0.00192406
0.00192644
0.00185669
0.0018576
0.00186925
0.00185702
0.00185748
0.0018676
0.00191686
0.00198797
0.00195774
0.00174913
0.00147041
0.00118302
0.000922418
0.000628822
0.000463286
0.000377199
0.000337076
0.000335653
0.000372327
0.00189865
0.00195128
0.00191667
0.00191476
0.00184823
0.00185053
0.00186323
0.00185259
0.00185532
0.001866
0.00191792
0.00199084
0.00195167
0.00170114
0.00133513
0.0010933
0.00080395
0.000579433
0.00044994
0.000364678
0.000343941
0.000351781
0.000396247
0.00188932
0.00193354
0.00190837
0.00190177
0.00184143
0.00183982
0.00185474
0.00184722
0.00185265
0.00186419
0.00192085
0.00199076
0.0019287
0.00165366
0.00129029
0.0009898
0.000725184
0.000549987
0.000439946
0.000374351
0.000356568
0.000370747
0.000456222
0.00188964
0.00191789
0.00189786
0.00188708
0.0018341
0.0018332
0.0018455
0.00184249
0.00185071
0.00186394
0.001923
0.00199055
0.00191311
0.00157691
0.00118019
0.000922852
0.000684637
0.000542949
0.000439663
0.000394544
0.0003773
0.000394342
0.000473103
0.00188239
0.00188851
0.0018865
0.00187366
0.00182792
0.00182943
0.00183819
0.00183698
0.0018485
0.00186295
0.00192796
0.0019934
0.00188927
0.00152515
0.00110793
0.000878327
0.000672596
0.000544687
0.000458078
0.000421003
0.00040142
0.000420579
0.000485656
0.00188285
0.00186173
0.00187574
0.00185842
0.00182216
0.00182168
0.0018321
0.00183382
0.00184702
0.00186337
0.00193016
0.00198991
0.00185833
0.00144308
0.00104976
0.000862786
0.000662386
0.000556961
0.000485711
0.000453162
0.000437448
0.000461891
0.000556987
0.00187867
0.00184802
0.00186827
0.00184939
0.00182018
0.00181925
0.00182867
0.00183267
0.0018457
0.00186313
0.00193672
0.00199149
0.00183716
0.00139538
0.00101992
0.000844892
0.000668982
0.000589453
0.000530208
0.000492583
0.000483964
0.000504383
0.000585534
0.0018787
0.00183533
0.001858
0.00183846
0.0018192
0.00181826
0.00182627
0.00183196
0.00184493
0.00186409
0.00194159
0.00199006
0.00180065
0.00133274
0.000979106
0.000834849
0.000693001
0.000640328
0.000576472
0.000537038
0.000533773
0.000551215
0.000632255
0.00187609
0.00183055
0.00185362
0.00183625
0.00182022
0.00182013
0.00182485
0.00183087
0.0018444
0.00186446
0.00194667
0.00198698
0.00177353
0.00128203
0.000979232
0.000845862
0.000733698
0.00068773
0.000637095
0.000582171
0.000591671
0.000623841
0.00068863
0.00187398
0.00182515
0.00184988
0.00183118
0.00182204
0.00182132
0.0018229
0.00183015
0.00184396
0.00186502
0.00195384
0.00198503
0.00173947
0.00124826
0.000978526
0.000844367
0.000763257
0.000743735
0.000703343
0.000633689
0.000676083
0.000696264
0.00065083
0.00187386
0.00182486
0.00185069
0.0018333
0.00182323
0.00182395
0.00182415
0.00182994
0.00184369
0.00186616
0.00196121
0.00198634
0.00171845
0.00122683
0.00096151
0.000833606
0.000812147
0.00080729
0.000763296
0.000699167
0.000732175
0.000701137
0.000597721
0.00187123
0.00182463
0.00185068
0.0018337
0.00182555
0.00182572
0.00182418
0.00183022
0.00184335
0.00186606
0.00196393
0.00198063
0.00169674
0.00119608
0.000953416
0.0008607
0.000878557
0.000857053
0.000813147
0.000710223
0.000701283
0.00065755
0.000541861
0.0018717
0.00182616
0.00185046
0.00183656
0.00182718
0.00182765
0.00182523
0.00183039
0.00184303
0.00186654
0.00197149
0.00197975
0.00167528
0.00116377
0.000949384
0.000885887
0.000905341
0.000881802
0.000827146
0.000686888
0.00063044
0.00058417
0.000491569
0.00187046
0.00182841
0.00185116
0.00183927
0.00182965
0.00182949
0.00182544
0.00183045
0.00184295
0.00186697
0.00197532
0.00197885
0.00165354
0.00113003
0.000937084
0.000889944
0.000911271
0.000883867
0.000817629
0.000629617
0.000568499
0.000520374
0.000442909
0.00187017
0.00183146
0.00185165
0.00184218
0.00183171
0.0018317
0.00182635
0.00183052
0.0018426
0.00186701
0.00197842
0.00197382
0.00162799
0.00110689
0.00093028
0.000889627
0.000904135
0.000851022
0.000761085
0.000565073
0.00051041
0.000467494
0.000411559
0.00186976
0.0018346
0.00185281
0.00184551
0.0018338
0.00183428
0.00182766
0.00183087
0.00184262
0.00186759
0.0019809
0.00196695
0.00160454
0.00108007
0.000906394
0.000862721
0.000843621
0.000774515
0.000686971
0.000509055
0.000463631
0.000429699
0.000388694
0.00186879
0.00183803
0.00185416
0.00184819
0.00183577
0.00183702
0.00182898
0.00183149
0.0018426
0.00186759
0.00198385
0.00196808
0.00159343
0.00104703
0.000857167
0.000793239
0.000773148
0.000714502
0.000629225
0.000471402
0.000432448
0.00040916
0.000380431
0.00186839
0.00184035
0.00185476
0.00185048
0.00183742
0.00183935
0.00183071
0.00183217
0.00184261
0.00186852
0.00198093
0.00196869
0.00157466
0.00102637
0.000815658
0.000736374
0.000708123
0.000656874
0.000578116
0.000442255
0.000410093
0.000395426
0.0002941
0.00186731
0.00184287
0.00185552
0.00185203
0.00183946
0.0018418
0.00183191
0.00183295
0.00184266
0.00186895
0.00197779
0.00196878
0.00156396
0.00101991
0.000785414
0.000687175
0.000656415
0.000609329
0.000539086
0.00043022
0.000405519
0.000353568
0.000233753
0.00186705
0.00184429
0.00185558
0.00185308
0.00184093
0.00184346
0.00183352
0.00183377
0.00184262
0.00186995
0.00197312
0.00196944
0.00156654
0.00102892
0.000767372
0.0006618
0.000617934
0.000573157
0.000510541
0.000426468
0.000407
0.000285647
0.000192029
0.00186626
0.00184549
0.00185551
0.00185327
0.0018428
0.00184469
0.00183434
0.00183427
0.00184256
0.00187062
0.00196811
0.00196489
0.00157894
0.00105248
0.000767534
0.00065067
0.000594786
0.000543345
0.00050184
0.000435113
0.000360253
0.00023655
0.000162762
0.00186603
0.00184588
0.0018548
0.00185286
0.00184374
0.00184526
0.00183546
0.00183479
0.0018423
0.00187208
0.00195686
0.00196398
0.00159504
0.00108868
0.000782353
0.000652694
0.000591832
0.000534148
0.00049597
0.000451881
0.000302669
0.000207741
0.000152253
0.00186561
0.00184579
0.00185481
0.00185212
0.00184494
0.00184498
0.00183582
0.00183502
0.00184212
0.00187314
0.00194518
0.0019577
0.00162411
0.00113553
0.000815637
0.00068135
0.000605873
0.000532283
0.000507442
0.000444614
0.000272349
0.000191464
0.000141008
0.00186528
0.00184584
0.00185364
0.00185087
0.00184542
0.00184455
0.00183645
0.00183495
0.00184162
0.00187365
0.00193989
0.00195114
0.00164726
0.0011888
0.000856603
0.000716452
0.000626152
0.000553921
0.000521697
0.000409212
0.000259905
0.000185749
0.00013997
0.00186419
0.00184437
0.00185304
0.00184937
0.00184521
0.00184302
0.0018367
0.0018351
0.00184133
0.00187335
0.00193429
0.00194882
0.00167798
0.0012473
0.000907872
0.000745613
0.000685476
0.00059154
0.000558662
0.000391974
0.000253192
0.00019216
0.000145906
0.00186453
0.00184439
0.00185321
0.00184756
0.0018456
0.00184221
0.00183636
0.00183464
0.00184061
0.00187329
0.00193173
0.00194015
0.00171049
0.00131043
0.000966603
0.00079639
0.000730037
0.000631968
0.000588188
0.000380923
0.000259205
0.000200526
0.000155184
0.00186126
0.00184305
0.00185105
0.00184675
0.00184426
0.00183998
0.0018368
0.00183461
0.00184028
0.00187361
0.0019335
0.00193616
0.00173492
0.00136616
0.00102135
0.000824696
0.000761876
0.000669741
0.000601349
0.000380385
0.000266998
0.00021224
0.000168698
0.00186066
0.00184153
0.00185077
0.00184297
0.00184365
0.00183859
0.0018361
0.0018343
0.00183935
0.00187369
0.00193316
0.0019349
0.00176443
0.00141966
0.00106603
0.000827118
0.000783551
0.00069991
0.000600333
0.000398821
0.000281905
0.000228195
0.000184485
0.00185788
0.00184024
0.00184951
0.0018422
0.001842
0.00183718
0.00183493
0.00183359
0.00183893
0.00187366
0.00193157
0.00193599
0.00178289
0.00146537
0.00110131
0.000821512
0.000791886
0.000734755
0.000619281
0.000414862
0.000300727
0.000250163
0.000201007
0.00185343
0.00183894
0.00184623
0.00183891
0.00183998
0.00183277
0.00183468
0.00183329
0.00183806
0.00187384
0.00192944
0.0019368
0.00180996
0.00150358
0.00112347
0.000826531
0.000783825
0.000753483
0.000642898
0.000443242
0.000326541
0.000270613
0.000220916
0.00184377
0.00183486
0.00184127
0.00183458
0.00183746
0.00183069
0.00183274
0.00183261
0.00183717
0.00187359
0.00192759
0.00194118
0.00182778
0.00153837
0.00114445
0.000820787
0.000790059
0.000754121
0.000668065
0.000466632
0.000351176
0.000296848
0.000247117
0.00183641
0.00182912
0.00183861
0.00182827
0.00183101
0.00182626
0.00182952
0.00183017
0.00183675
0.00187392
0.00192529
0.00194472
0.00183999
0.00155911
0.00115175
0.000818502
0.000791479
0.000761427
0.000686956
0.000511033
0.000382787
0.000333106
0.000277252
0.00182782
0.00182392
0.00183005
0.00182595
0.00182733
0.00182204
0.00182612
0.00182831
0.00183533
0.00187381
0.00192451
0.00194784
0.00184319
0.00157167
0.00115529
0.00081723
0.000791412
0.000760081
0.00069236
0.000560052
0.000430962
0.000370578
0.000318398
0.00182238
0.00181882
0.00182925
0.00182517
0.00182759
0.00182184
0.00182695
0.00182739
0.00183472
0.00187293
0.00192285
0.00195016
0.00184474
0.00157476
0.00115398
0.000822715
0.000794143
0.000763864
0.000692361
0.000614616
0.000478473
0.000428409
0.000368258
0.00182018
0.00181915
0.00182703
0.00182401
0.00182495
0.00182037
0.00182607
0.00182591
0.00183435
0.00187202
0.00192195
0.00195007
0.00184099
0.00157851
0.00115147
0.000825256
0.00080452
0.000766043
0.000692889
0.000634859
0.000550539
0.000492819
0.000430557
0.00181856
0.00181575
0.00182645
0.00182307
0.00182596
0.00181889
0.00182609
0.00182554
0.00183375
0.00186993
0.00192251
0.00195399
0.00184553
0.00158262
0.00114562
0.000834798
0.000816683
0.000766302
0.000693365
0.000635646
0.000586358
0.000554022
0.000499885
0.0018178
0.00181643
0.00182483
0.00182243
0.00182484
0.00181956
0.00182511
0.00182448
0.00183346
0.00186788
0.00192195
0.00195495
0.00184619
0.0015824
0.00114623
0.00084418
0.000832179
0.000770268
0.00069572
0.000633488
0.000577378
0.00054625
0.000535247
0.00181742
0.00181608
0.00182558
0.00182189
0.00182434
0.00181964
0.00182462
0.00182506
0.00183258
0.00186542
0.0019229
0.00195583
0.00184964
0.00158322
0.00114586
0.00085945
0.000848051
0.000768432
0.000693653
0.000629589
0.000578307
0.000544802
0.000532236
0.00181555
0.00181704
0.00182387
0.00182235
0.00182321
0.00182015
0.00182369
0.00182512
0.00183305
0.00186285
0.00192259
0.00195696
0.00184911
0.00158452
0.00115105
0.000875606
0.000868809
0.000773279
0.000697325
0.000627935
0.000578532
0.00054639
0.000537389
0.00181739
0.00181527
0.00182349
0.00182242
0.00182259
0.00181906
0.00182426
0.00182461
0.00183301
0.00185984
0.00192241
0.00195795
0.00185023
0.00158148
0.00114555
0.000901629
0.000878967
0.000767447
0.000695265
0.00062436
0.000581763
0.000552963
0.000543408
0.00181731
0.00181518
0.00182292
0.00182067
0.00182205
0.00181984
0.00182398
0.00182449
0.00183352
0.00185726
0.00192342
0.00195887
0.00185077
0.00156782
0.00111948
0.000924732
0.000883388
0.000771395
0.00069551
0.000625485
0.000588979
0.000564976
0.000556518
0.00181731
0.0018163
0.00182187
0.00182014
0.00182324
0.00181994
0.00182312
0.00182443
0.00183274
0.00185525
0.00192362
0.00195505
0.00184885
0.00154713
0.0011035
0.00094595
0.000879076
0.000762086
0.000696317
0.000628112
0.000591604
0.000572395
0.000562318
0.00181586
0.00181566
0.00182085
0.00182145
0.0018234
0.0018182
0.00182307
0.00182562
0.00183283
0.00185318
0.00192436
0.00195693
0.00185136
0.00152755
0.0010687
0.000961293
0.000878669
0.000768404
0.000691708
0.000632423
0.000601875
0.000588381
0.000579502
0.00181792
0.00181547
0.0018214
0.00182173
0.00182365
0.00181852
0.00182295
0.00182474
0.00183309
0.00185219
0.00192619
0.00195583
0.00185242
0.00150749
0.001066
0.000976611
0.00087521
0.000770364
0.000695217
0.000644277
0.000610294
0.000595389
0.000583934
0.00181713
0.00181544
0.00181983
0.00181985
0.00182311
0.00181834
0.00182408
0.00182397
0.00183274
0.00185063
0.00192977
0.00195698
0.00185584
0.00150059
0.001043
0.000993219
0.000882106
0.000781541
0.000706702
0.000658744
0.000623856
0.000609977
0.000604713
0.0018156
0.00181512
0.00181971
0.00181804
0.00182294
0.00181916
0.00182346
0.00182512
0.00183292
0.00184979
0.00193146
0.00196043
0.00185473
0.00148591
0.00106177
0.00100441
0.000895383
0.000795825
0.00071716
0.000672907
0.00064405
0.000622233
0.00061546
0.0018166
0.00181601
0.00181884
0.00182006
0.00182147
0.00181768
0.00182413
0.00182267
0.00183251
0.00184974
0.00193446
0.00196061
0.00185364
0.00148307
0.00105704
0.00101862
0.00090112
0.000819984
0.000742076
0.000694114
0.000653232
0.000628707
0.000630797
0.00181716
0.00181483
0.00181821
0.00181917
0.00182144
0.00181803
0.00182457
0.00182339
0.00183303
0.00184927
0.00193566
0.00196269
0.00185201
0.00146722
0.00108154
0.0010315
0.000924127
0.000839655
0.000760183
0.000718576
0.000681116
0.000660291
0.000627978
0.00181836
0.00181627
0.00181829
0.00181919
0.00182164
0.00181788
0.00182249
0.00182289
0.00183275
0.00184978
0.00193744
0.00196365
0.00185408
0.00145665
0.00110646
0.00105786
0.000940748
0.000868225
0.00078736
0.000743533
0.000697601
0.000676778
0.000654498
0.00182145
0.001816
0.00181713
0.00181874
0.0018239
0.00181624
0.00182308
0.0018214
0.00183179
0.00184982
0.00193959
0.00196227
0.00185106
0.00145223
0.00112658
0.0010777
0.000970459
0.000890078
0.000805418
0.000771974
0.00072767
0.000730563
0.000698455
0.00182033
0.00181716
0.00181918
0.00181882
0.00182317
0.00181677
0.00182129
0.00182165
0.00183236
0.00184998
0.00194431
0.00196252
0.00185313
0.00143733
0.00118528
0.00110648
0.000996701
0.00092408
0.000833636
0.000786068
0.000758623
0.000762594
0.000741111
0.00181706
0.00181742
0.00181962
0.00181779
0.00182318
0.00181794
0.00182066
0.00182327
0.00183149
0.0018511
0.00194738
0.00196449
0.00184503
0.00143466
0.00123164
0.00112892
0.0010383
0.000952819
0.000855362
0.000811937
0.000770714
0.000813614
0.000782875
0.00181764
0.00181651
0.00181928
0.0018176
0.00182258
0.00181955
0.00182108
0.0018236
0.00183191
0.00185206
0.00195174
0.00196518
0.00185095
0.00141869
0.00128949
0.00117485
0.00109645
0.000990158
0.000871775
0.000823704
0.000801387
0.00086479
0.000894076
0.00180929
0.00181545
0.0018182
0.00181901
0.00182086
0.00182002
0.00182047
0.00182454
0.00183226
0.00185429
0.00195726
0.0019688
0.0018471
0.0014194
0.00132816
0.00121533
0.00114426
0.00101709
0.000904814
0.000873645
0.000869891
0.000934254
0.000946085
0.00181111
0.00181391
0.00181779
0.00181873
0.00181801
0.00182189
0.00182126
0.00182296
0.00183384
0.00185566
0.00196039
0.00197168
0.00183269
0.00139234
0.0013876
0.00126041
0.00119534
0.00105127
0.000941008
0.00090023
0.000952472
0.00103403
0.00111582
0.00180835
0.00181086
0.00181792
0.00181934
0.001816
0.00182119
0.0018226
0.00182358
0.00183414
0.0018577
0.00196363
0.00197666
0.00183304
0.00142913
0.00141943
0.00129174
0.00122671
0.00106228
0.000983013
0.000986694
0.00106959
0.00105622
0.00116652
0.00181187
0.00181154
0.00181968
0.00181841
0.00181629
0.00181983
0.00182523
0.00182479
0.00183519
0.00185759
0.00196285
0.0019874
0.00183725
0.00146934
0.00145413
0.00133707
0.00126066
0.00109771
0.00105152
0.00106388
0.00109263
0.00115613
0.00124467
0.00181351
0.00181464
0.00182127
0.00181788
0.00181725
0.0018196
0.00182528
0.00182412
0.00183428
0.00185714
0.00195861
0.00199111
0.00185049
0.00147778
0.00153585
0.00139313
0.0013012
0.00114418
0.00111031
0.00109597
0.00110899
0.00116279
0.00121637
0.00181668
0.00181645
0.00181892
0.00181562
0.00181756
0.0018181
0.00182159
0.00182495
0.00183161
0.0018559
0.00195141
0.00199136
0.0018725
0.00150881
0.00159396
0.00145758
0.00134855
0.00120467
0.00115438
0.00112675
0.00114275
0.00117594
0.0012485
0.00181717
0.00181543
0.0018146
0.00181465
0.00181706
0.00181874
0.00182033
0.00182397
0.00183031
0.00185414
0.00194363
0.00199203
0.0018755
0.00157226
0.00170169
0.00153696
0.00142614
0.00129875
0.00121582
0.00119517
0.00117626
0.00125826
0.00135001
0.00181708
0.00181202
0.00181456
0.00181611
0.00181743
0.00181584
0.00181805
0.0018224
0.00182969
0.00185222
0.00193541
0.00199443
0.00189984
0.00160525
0.00174129
0.00165087
0.00151845
0.00138872
0.00129446
0.00128918
0.00125598
0.00135609
0.00147789
0.00181769
0.00180763
0.00181391
0.00182209
0.00181918
0.00181512
0.00181684
0.00182019
0.00182935
0.00185028
0.0019279
0.00199346
0.00192937
0.00172823
0.00185123
0.00176356
0.00165171
0.00154036
0.0014156
0.0013868
0.0013782
0.00143944
0.00151354
0.00181043
0.0018013
0.00181355
0.00182386
0.00181665
0.00181582
0.00181591
0.00181828
0.00182935
0.00184843
0.00192061
0.00199259
0.001977
0.0017711
0.00197056
0.0019503
0.00179653
0.00168881
0.00157238
0.00157383
0.00157878
0.00162005
0.00169231
0.00180307
0.00180283
0.00181457
0.0018213
0.00181586
0.00181532
0.00181923
0.00182219
0.00182945
0.00184686
0.00191412
0.00200515
0.00200423
0.00192496
0.00205618
0.00207253
0.00201324
0.00188246
0.00178403
0.00175642
0.00179296
0.00188994
0.0019271
0.00179426
0.00181056
0.00181501
0.00182138
0.00181461
0.00181386
0.00181996
0.0018235
0.00182947
0.00184568
0.0019089
0.00199173
0.00206928
0.00204918
0.00223287
0.00225068
0.00225936
0.00213431
0.00198265
0.00198927
0.0020006
0.00207242
0.00212608
0.00179633
0.00181371
0.00181404
0.00182137
0.00181429
0.00181308
0.00182186
0.00182393
0.00182949
0.00184489
0.00190465
0.00198836
0.002087
0.0022399
0.00239309
0.00243891
0.00245489
0.00245089
0.00230541
0.00225025
0.00227387
0.00234279
0.0024356
0.00180616
0.00181499
0.00181391
0.00182064
0.00181377
0.00181263
0.00182181
0.00182344
0.00182933
0.00184443
0.00190073
0.00200527
0.00219554
0.00248213
0.00257411
0.00267007
0.00268505
0.00262463
0.00248037
0.00250852
0.00258556
0.00268143
0.00268815
0.00180914
0.00181523
0.00181497
0.00181937
0.00181255
0.00181166
0.00182366
0.00182301
0.00182922
0.00184417
0.00189735
0.0020068
0.0021788
0.0026565
0.00301272
0.00291533
0.00288623
0.00299112
0.0028264
0.00286729
0.00294555
0.00288353
0.00285419
0.00180993
0.00181486
0.00181566
0.00181791
0.00181261
0.00181215
0.00182567
0.00182237
0.00182884
0.00184398
0.00189411
0.00198117
0.002205
0.00296223
0.0034253
0.00327251
0.00313191
0.00319824
0.00324034
0.00329308
0.0031952
0.00307957
0.00310846
0.00180947
0.00181412
0.00181513
0.00181631
0.00181275
0.00181276
0.00182354
0.00182122
0.00182837
0.00184371
0.00189149
0.00197986
0.00209887
0.00290775
0.00376613
0.003667
0.00343621
0.00346092
0.00338505
0.00350414
0.00367199
0.0033483
0.00323387
0.0018084
0.001813
0.00181323
0.00181445
0.00181242
0.00181281
0.00181923
0.00181952
0.00182751
0.00184329
0.00188801
0.00199428
0.00219934
0.00297931
0.00386946
0.00386825
0.0036024
0.00375916
0.00388545
0.00380008
0.00395691
0.00374942
0.00380184
0.00180671
0.0018115
0.00181042
0.0018124
0.00181138
0.00181199
0.00181555
0.0018179
0.00182632
0.00184232
0.00188452
0.00199459
0.00238938
0.00341797
0.00473422
0.00476065
0.00452728
0.0046703
0.00444531
0.00395884
0.00409841
0.00399989
0.00402242
0.00180494
0.00180939
0.00180692
0.00181003
0.0018097
0.00181051
0.0018126
0.00181594
0.0018246
0.00184086
0.0018804
0.00199475
0.00252299
0.00341789
0.00561174
0.00535343
0.00515486
0.00533165
0.00515156
0.00501083
0.00450171
0.00446041
0.00471126
0.00180291
0.0018068
0.00180323
0.00180778
0.00180766
0.00180862
0.00181028
0.00181388
0.00182233
0.00183841
0.00187483
0.00201948
0.00240395
0.00389314
0.00689475
0.00625815
0.00583732
0.0058657
0.00602263
0.00645898
0.00521602
0.00555216
0.0053652
0.00180104
0.00180348