/*--------------------------------*- C++ -*----------------------------------*\
  =========                 |
  \\      /  F ield         | OpenFOAM: The Open Source CFD Toolbox
   \\    /   O peration     | Website:  https://openfoam.org
    \\  /    A nd           | Version:  7
     \\/     M anipulation  |
\*---------------------------------------------------------------------------*/
FoamFile
{
    version     2.0;
    format      ascii;
    class       volScalarField;
    location    "50";
    object      omega;
}
// * * * * * * * * * * * * * * * * * * * * * * * * * * * * * * * * * * * * * //

dimensions      [0 0 -1 0 0 0 0];

internalField   nonuniform List<scalar> 
12842
(
3.14221
2.84432
2.65083
2.52677
2.44394
2.37517
2.33237
2.29218
2.26955
2.24696
2.23657
2.2257
2.22635
2.23228
2.24488
2.27628
2.32028
2.39826
2.49923
2.59786
2.71933
2.82173
2.90536
3.12486
2.81984
2.63311
2.49972
2.42178
2.36224
2.32573
2.29032
2.26887
2.24696
2.23603
2.22453
2.22567
2.23136
2.24571
2.27473
2.32127
2.39799
2.50494
2.59303
2.71511
2.81439
2.91834
3.1048
2.78953
2.60256
2.48505
2.40602
2.35028
2.31463
2.28104
2.26296
2.24341
2.2344
2.22384
2.22547
2.23231
2.24828
2.27835
2.32781
2.40435
2.51458
2.60663
2.7265
2.80882
2.91536
3.08092
2.75353
2.57265
2.45575
2.38209
2.3329
2.30544
2.27623
2.25842
2.23977
2.23176
2.22247
2.22462
2.23261
2.25003
2.28179
2.33534
2.41628
2.52748
2.62115
2.74707
2.82226
2.93025
3.05112
2.72536
2.53868
2.43537
2.36365
2.31525
2.28833
2.26484
2.25157
2.2336
2.22741
2.22104
2.22411
2.2333
2.25245
2.28621
2.34199
2.42486
2.54277
2.62901
2.75716
2.83155
2.94156
3.0227
2.6891
2.51245
2.41014
2.34512
2.30512
2.27894
2.25794
2.24579
2.22992
2.22462
2.21966
2.22329
2.23368
2.2542
2.29017
2.34945
2.43597
2.55935
2.66238
2.78315
2.85757
2.96624
2.99307
2.65785
2.48613
2.38833
2.32411
2.2884
2.2656
2.24805
2.23769
2.22381
2.221
2.21808
2.22271
2.23429
2.25687
2.29605
2.35942
2.45146
2.57968
2.67795
2.8217
2.91072
3.0356
2.96433
2.63015
2.46159
2.37332
2.31392
2.28105
2.25752
2.24398
2.23296
2.22088
2.2183
2.2168
2.22126
2.23457
2.25826
2.29708
2.36219
2.45871
2.5925
2.73234
2.86402
2.96295
3.08742
2.93495
2.60042
2.44241
2.35137
2.29696
2.26814
2.24704
2.23719
2.22748
2.21745
2.21642
2.21551
2.22162
2.23712
2.2594
2.30066
2.37264
2.48441
2.62317
2.76286
2.96524
3.0874
3.2254
2.90315
2.57329
2.42076
2.34127
2.29044
2.26278
2.24233
2.23373
2.22463
2.21621
2.2152
2.21396
2.22084
2.23704
2.2609
2.3044
2.38025
2.50044
2.65104
2.82003
3.04806
3.22204
3.40824
2.87155
2.54625
2.40203
2.3221
2.27779
2.2536
2.23594
2.22848
2.2211
2.21399
2.21302
2.21237
2.22119
2.23708
2.26381
2.31929
2.41105
2.56049
2.72344
2.90493
3.19233
3.38463
3.5796
2.83785
2.52131
2.38524
2.31366
2.27209
2.24874
2.23283
2.22608
2.21951
2.21285
2.21096
2.21105
2.22091
2.23902
2.27155
2.32968
2.43306
2.59855
2.80175
3.01084
3.32798
3.57563
3.82298
2.80931
2.49842
2.36676
2.29762
2.26132
2.24076
2.22813
2.22207
2.21653
2.21048
2.20842
2.21054
2.22113
2.24323
2.28929
2.37533
2.50491
2.70534
2.9007
3.1572
3.51626
3.79387
4.04358
2.77588
2.47671
2.35384
2.29017
2.25656
2.23703
2.22578
2.22003
2.21489
2.20909
2.20636
2.21064
2.22495
2.25661
2.32575
2.40768
2.5631
2.77523
3.03605
3.31639
3.69057
3.98877
4.28522
2.75002
2.45727
2.33644
2.27709
2.24746
2.23072
2.22124
2.21584
2.2114
2.20648
2.20485
2.21268
2.2406
2.29108
2.38558
2.50029
2.67054
2.91564
3.16116
3.48995
3.91505
4.27195
4.58581
2.72035
2.43946
2.3257
2.27002
2.24331
2.2276
2.21865
2.21352
2.20944
2.20474
2.20685
2.22782
2.27542
2.33656
2.44687
2.5612
2.77909
3.02892
3.32248
3.69979
4.12083
4.45639
4.81128
2.69651
2.42381
2.31091
2.25977
2.23529
2.22143
2.21297
2.20852
2.20522
2.2022
2.21257
2.25379
2.32184
2.40582
2.54201
2.68689
2.88566
3.16931
3.48411
3.8815
4.34877
4.75487
5.1679
2.6729
2.40803
2.30015
2.25259
2.23142
2.21805
2.20992
2.20619
2.20408
2.20582
2.23666
2.29768
2.38202
2.47306
2.61847
2.76787
3.03883
3.32727
3.64481
4.10464
4.61174
4.97783
5.41441
2.6544
2.39646
2.28983
2.24336
2.22378
2.21085
2.20287
2.20139
2.20261
2.21046
2.26421
2.34751
2.45182
2.56418
2.73302
2.90908
3.14079
3.44838
3.82773
4.2966
4.79654
5.24611
5.77474
2.63632
2.3823
2.27893
2.23677
2.21981
2.20724
2.20163
2.20567
2.20998
2.23862
2.31286
2.41292
2.52954
2.64756
2.82124
2.99915
3.30778
3.64815
4.01895
4.50017
5.07918
5.5421
6.12617
2.62174
2.37206
2.27218
2.22787
2.21173
2.19909
2.19709
2.20394
2.21765
2.26479
2.3603
2.47834
2.61004
2.74218
2.93503
3.1551
3.43733
3.76223
4.17962
4.72108
5.2734
5.76046
6.38764
2.60755
2.35947
2.26258
2.21962
2.20718
2.1967
2.20315
2.21985
2.25801
2.32051
2.4282
2.55768
2.69862
2.84061
3.0393
3.24191
3.57223
3.96858
4.42314
4.92715
5.48122
6.05496
6.76911
2.59578
2.34969
2.25748
2.21287
2.20035
2.19494
2.21652
2.24512
2.29418
2.36609
2.48894
2.62975
2.77873
2.92388
3.13602
3.40967
3.75242
4.10954
4.57462
5.1081
5.78528
6.37211
7.05681
2.58563
2.33866
2.2502
2.20379
2.19364
2.19759
2.24993
2.29985
2.35945
2.44597
2.57484
2.72178
2.8766
3.03727
3.26156
3.49932
3.8541
4.29476
4.794
5.40994
5.98973
6.60042
7.27414
2.57799
2.33194
2.24716
2.1979
2.19245
2.21234
2.29174
2.3528
2.42602
2.51604
2.64873
2.79986
2.9567
3.1131
3.34301
3.6633
4.06056
4.47329
5.05702
5.59569
6.28711
7.0146
7.89907
2.57011
2.32127
2.24012
2.19358
2.19581
2.24113
2.34075
2.41492
2.49424
2.58872
2.72233
2.87648
3.03664
3.21405
3.47382
3.77448
4.17664
4.68049
5.22796
5.89443
6.68256
7.58202
8.36821
2.56122
2.3141
2.23606
2.19321
2.20894
2.28615
2.3989
2.48113
2.56697
2.66139
2.79343
2.94847
3.10903
3.28093
3.53916
3.90692
4.38451
4.89407
5.55189
6.30749
7.19286
8.14886
9.17466
2.55283
2.30249
2.2304
2.19999
2.23744
2.33423
2.45891
2.54915
2.63627
2.73266
2.86209
3.01624
3.17481
3.36669
3.67137
4.07598
4.53188
5.10309
5.90206
6.785
7.77329
9.12818
10.7301
2.54273
2.29427
2.22582
2.22121
2.27805
2.39131
2.52234
2.61708
2.70513
2.80027
2.92561
3.07928
3.24053
3.43618
3.73577
4.16401
4.73011
5.49953
6.37804
7.37538
8.798
11.1167
13.4593
2.53329
2.2837
2.22665
2.25039
2.32626
2.4498
2.58491
2.68098
2.76897
2.86372
2.98563
3.13664
3.2928
3.50307
3.87062
4.37868
5.02485
5.80835
6.88136
8.36573
10.7027
13.9067
16.9608
2.5224
2.27846
2.23108
2.29371
2.38689
2.51198
2.64586
2.74227
2.82838
2.92176
3.03886
3.18902
3.35088
3.58481
3.94447
4.50523
5.21567
6.24802
7.79382
9.88859
13.0845
16.6927
20.327
2.51215
2.27117
2.25107
2.33715
2.44594
2.57287
2.70382
2.79715
2.88269
2.97445
3.08851
3.23627
3.39546
3.64138
4.09563
4.7417
5.60001
6.97216
8.86293
11.6531
15.1596
19.6332
24.6975
2.50065
2.2692
2.27457
2.39078
2.5109
2.63192
2.75696
2.84689
2.93106
3.02134
3.13117
3.27792
3.44295
3.73362
4.21112
4.94939
6.0417
7.68254
10.0962
13.2226
17.8762
24.6779
34.8845
2.4909
2.2698
2.31217
2.43754
2.57165
2.68857
2.80571
2.89064
2.974
3.06281
3.17026
3.31629
3.48607
3.7956
4.35954
5.24244
6.52131
8.50345
11.2277
15.4312
23.162
38.3255
53.2281
2.48065
2.28232
2.34917
2.49102
2.63143
2.73896
2.84844
2.92893
3.01176
3.099
3.20373
3.34938
3.52632
3.90074
4.58306
5.62705
7.07376
9.36241
12.7027
19.6105
36.4281
57.9052
71.2776
2.47006
2.30485
2.39482
2.53316
2.6865
2.78667
2.88588
2.96242
3.04402
3.1303
3.23333
3.38017
3.56806
3.97198
4.71068
5.87859
7.74571
10.3924
15.2368
29.0223
54.7679
75.2501
85.4671
2.46821
2.33665
2.43691
2.58387
2.73791
2.82797
2.91892
2.99162
3.07237
3.15733
3.25931
3.40821
3.61173
4.10225
4.99391
6.43604
8.4719
11.8023
20.398
43.672
71.4682
86.4082
93.5325
2.46713
2.37867
2.48432
2.62102
2.78518
2.86586
2.94715
3.01812
3.09627
3.18039
3.2816
3.43222
3.64806
4.17782
5.18281
6.82502
9.29819
14.4092
29.9887
58.1507
82.6259
91.9903
97.2483
2.47838
2.42193
2.52606
2.66776
2.82681
2.89852
2.97139
3.04055
3.11729
3.20016
3.30117
3.45884
3.70577
4.34565
5.50681
7.47733
10.6299
19.8389
41.5572
69.7785
88.6173
95.9496
108.432
2.49613
2.47445
2.57174
2.7052
2.86737
2.92971
2.99543
3.06277
3.13509
3.21716
3.31883
3.47718
3.73788
4.44598
5.7954
8.18698
13.5745
28.0886
52.5776
76.9838
92.0543
98.482
107.732
2.52781
2.52205
2.61368
2.74499
2.90154
2.95717
3.01596
3.081
3.15119
3.23159
3.33299
3.5038
3.80739
4.60981
6.16058
9.67639
18.3908
37.3604
61.4014
81.342
93.6547
96.9561
104.879
2.56108
2.57933
2.65841
2.78435
2.93491
2.98366
3.03654
3.09936
3.16506
3.24436
3.34797
3.5203
3.84866
4.82113
7.04895
12.048
24.7568
46.0207
66.8935
85.7513
92.2608
94.9561
102.292
2.6015
2.62781
2.70477
2.82071
2.96212
3.00743
3.05647
3.11569
3.17804
3.25516
3.35849
3.54505
3.92658
5.01651
7.69453
15.2149
31.6614
52.7765
70.7263
84.3433
89.3184
92.1598
99.6687
2.63696
2.68074
2.74858
2.85828
2.98932
3.03188
3.0744
3.12904
3.18957
3.26492
3.37177
3.56606
3.99407
5.40475
9.2111
18.8579
38.0317
57.0129
72.9968
80.7877
85.2504
88.5681
96.3104
2.67282
2.72451
2.7931
2.89256
3.00884
3.04911
3.08947
3.1419
3.2002
3.27347
3.38045
3.58745
4.07984
5.68948
10.3377
22.4572
43.1487
60.0106
71.7028
76.7965
80.5991
84.2742
91.855
2.70142
2.76754
2.83366
2.92574
3.02636
3.06372
3.10163
3.15341
3.20935
3.28091
3.39276
3.61387
4.18628
6.15762
12.0026
26.1719
46.6447
60.3971
68.8549
72.3185
75.4764
78.932
87.2641
2.72928
2.80219
2.86672
2.95161
3.03732
3.07382
3.10993
3.16043
3.21704
3.28825
3.40017
3.63832
4.27896
6.62507
13.5638
29.3977
48.8455
59.5631
65.5871
68.0975
70.1769
73.836
80.848
2.75256
2.83462
2.90029
2.97649
3.04843
3.08402
3.1168
3.16679
3.22377
3.294
3.41187
3.66299
4.41733
7.10508
15.17
32.4453
50.1554
57.8009
62.2304
64.7329
65.7534
68.4912
75.092
2.77477
2.86068
2.92533
2.99363
3.05613
3.09145
3.12007
3.17177
3.22923
3.30037
3.41907
3.69513
4.53154
7.68636
16.8357
35.416
50.0534
55.7105
59.2787
61.5761
61.5694
62.7748
67.7692
2.79774
2.88409
2.9462
3.01273
3.06571
3.1
3.12647
3.17772
3.23462
3.30623
3.42935
3.71892
4.67228
8.2585
18.4336
37.8889
49.5248
53.7351
56.4517
58.9567
58.5943
61.4643
62.7505
2.81793
2.90455
2.95789
3.02341
3.0739
3.10595
3.13059
3.18151
3.2392
3.31068
3.43742
3.7427
4.79503
8.69886
20.1142
39.7352
49.0352
52.2203
54.1661
56.8568
55.1224
59.1373
58.7314
2.83915
2.92137
2.97036
3.03534
3.0821
3.11395
3.13763
3.18544
3.24359
3.31686
3.44542
3.76683
4.89995
9.2691
21.8577
41.1445
48.5418
51.0627
53.0119
55.6545
54.9839
57.1266
56.3254
2.85757
2.93684
2.98064
3.04362
3.09002
3.12105
3.14381
3.18979
3.24745
3.32025
3.45311
3.78651
5.00523
9.91214
23.4634
42.1803
48.4061
50.4574
52.3681
54.0295
53.4007
54.457
53.2151
2.87775
2.95042
2.99189
3.05252
3.09744
3.12912
3.15157
3.19489
3.25133
3.32615
3.46353
3.80574
5.11915
10.5043
24.6563
42.6827
48.319
50.2242
50.8554
51.5062
50.6053
51.3924
50.5064
2.89676
2.96347
3.00229
3.06025
3.10542
3.13589
3.15827
3.2001
3.25443
3.32929
3.47035
3.82374
5.24231
10.8757
25.2102
42.9047
48.167
49.568
48.1772
48.3527
46.5395
46.6317
45.9662
2.91686
2.97648
3.01346
3.06818
3.11336
3.14225
3.16485
3.20541
3.25787
3.33403
3.4818
3.85325
5.34158
11.0592
25.3907
42.8326
46.8671
46.8012
44.6209
44.4881
42.3576
41.9211
41.3278
2.93565
2.98894
3.02394
3.07546
3.12077
3.14704
3.17033
3.20947
3.26029
3.33719
3.49025
3.8616
5.35129
10.9467
24.5379
41.3811
43.1294
42.6904
40.7747
40.6143
38.1996
37.1495
36.4149
2.95321
3.00185
3.03553
3.0832
3.12772
3.15171
3.17526
3.21327
3.26239
3.34063
3.49777
3.86405
5.35171
10.5554
22.7037
37.9263
38.3184
38.1016
36.8417
36.4683
34.1306
32.6134
31.913
2.97098
3.01533
3.04732
3.09163
3.1344
3.15632
3.18071
3.21681
3.26411
3.34349
3.50479
3.8651
5.30648
9.99079
20.4649
33.4074
33.2414
33.5588
32.8581
32.2286
30.24
28.7046
27.9721
2.98732
3.02987
3.06089
3.10095
3.14137
3.16145
3.18576
3.22038
3.26569
3.34595
3.50791
3.86111
5.21068
9.34113
18.1241
28.5514
28.4516
29.4088
28.9714
28.2661
26.6757
25.427
24.8281
3.00503
3.04544
3.07444
3.11138
3.14783
3.16748
3.19174
3.22439
3.26698
3.34844
3.50845
3.84705
5.08592
8.63997
15.8393
23.9647
24.2288
25.8844
25.4702
24.8031
23.627
22.7047
22.2978
3.01966
3.06101
3.08899
3.12218
3.15526
3.17389
3.19747
3.22842
3.26854
3.3488
3.50892
3.82899
4.94217
7.97228
13.7805
20.0709
20.7253
22.8569
22.6479
21.9386
21.1158
20.6601
20.443
3.03715
3.07787
3.10325
3.13422
3.16233
3.1821
3.20407
3.23339
3.26992
3.3492
3.50613
3.80566
4.78373
7.34185
12.059
17.0605
17.9372
20.2885
20.3328
19.7341
19.3099
19.2232
19.0467
3.051
3.09388
3.11738
3.14582
3.17053
3.18974
3.21043
3.23809
3.27194
3.34953
3.50052
3.78217
4.63447
6.78484
10.6137
14.8782
15.8594
18.1742
18.5929
18.1523
18.0433
17.9958
18.1134
3.06755
3.11044
3.13137
3.15823
3.17852
3.19949
3.21733
3.24379
3.27378
3.35011
3.49246
3.75458
4.48405
6.2866
9.4886
13.449
14.3197
16.4592
17.144
17.0237
17.0514
17.2587
17.516
3.08169
3.12624
3.14399
3.17047
3.18738
3.20807
3.22446
3.24893
3.27643
3.35016
3.48376
3.72978
4.34402
5.86512
8.64051
12.4986
13.2905
15.0646
16.1223
16.1766
16.3748
16.8356
17.296
3.09737
3.14119
3.15698
3.18172
3.19635
3.21748
3.23096
3.25466
3.27881
3.34958
3.4764
3.7046
4.21931
5.51173
8.03037
11.9795
12.5908
14.0057
15.3848
15.5678
15.9287
16.5821
17.2007
3.11159
3.15624
3.16847
3.19428
3.20494
3.22702
3.23881
3.26002
3.28211
3.34896
3.4702
3.67662
4.1094
5.22789
7.61367
11.7635
12.1678
13.2442
14.8459
15.1827
15.6379
16.4436
17.1189
3.12708
3.16888
3.18007
3.20525
3.2148
3.23482
3.24574
3.26516
3.28493
3.34757
3.46641
3.6527
4.02615
5.01482
7.31958
11.7205
11.9844
12.6932
14.4672
14.9134
15.4568
16.353
17.1313
3.14127
3.18293
3.19055
3.2164
3.22371
3.24421
3.25257
3.27082
3.28856
3.34624
3.46266
3.63266
3.96087
4.86517
7.13677
11.6885
11.9409
12.3947
14.1661
14.7618
15.3305
16.2583
17.1101
3.15745
3.19443
3.20319
3.22788
3.23222
3.25218
3.26112
3.2752
3.29207
3.34522
3.45878
3.61767
3.91692
4.77031
7.02661
11.7525
11.93
12.266
13.9657
14.7387
15.2438
16.2188
17.0734
3.17049
3.20657
3.21165
3.23836
3.24343
3.25924
3.26667
3.28098
3.29518
3.34438
3.45575
3.60196
3.88535
4.71087
6.96987
11.8653
11.9059
12.2524
13.8287
14.7095
15.2462
16.1803
17.0411
3.18562
3.21713
3.22589
3.24261
3.25037
3.26753
3.27313
3.28557
3.29954
3.34392
3.45368
3.59009
3.87391
4.67208
6.94909
11.9559
11.897
12.2273
13.7242
14.6825
15.2405
16.1657
17.1363
3.19513
3.22714
3.22948
3.24367
3.25304
3.26802
3.27409
3.28833
3.30295
3.34339
3.4515
3.58288
3.86879
4.66621
6.96897
12.0333
11.9417
12.2287
13.6884
14.6699
15.2535
16.2976
17.2499
3.19947
3.22794
3.23137
3.24791
3.25684
3.27083
3.27508
3.29013
3.30371
3.34261
3.44941
3.57884
3.86569
4.65408
6.99513
12.08
12.019
12.3775
13.736
14.7096
15.3607
16.4327
17.4427
3.20527
3.23244
3.23251
3.24806
3.25628
3.27353
3.27619
3.29131
3.30633
3.34307
3.44729
3.57433
3.86204
4.64766
7.05584
12.1212
12.1007
12.6318
13.9093
14.8292
15.6766
16.6014
17.4615
3.20383
3.23074
3.23629
3.24865
3.25652
3.27239
3.27656
3.29266
3.30618
3.34271
3.44579
3.57373
3.8586
4.64629
7.1483
12.1194
12.196
12.9942
14.1739
15.0002
16.061
17.0408
17.6803
3.20477
3.2315
3.23504
3.24921
3.25738
3.27233
3.27724
3.2918
3.30772
3.34335
3.44449
3.57301
3.8605
4.64617
7.32189
12.1265
12.2827
13.365
14.518
15.3198
16.273
17.3959
18.2199
3.20794
3.23129
3.23525
3.24952
3.2602
3.27232
3.2789
3.29143
3.30673
3.34266
3.44365
3.57212
3.86162
4.64918
7.53758
12.1331
12.3715
13.7842
14.8732
15.6145
16.5573
17.7247
18.4728
3.20498
3.23134
3.23548
3.24978
3.25916
3.27237
3.27749
3.29133
3.30667
3.34356
3.44311
3.57111
3.86232
4.66283
7.92779
12.1468
12.5862
14.1924
15.2532
15.9982
16.772
17.8965
18.8081
3.20493
3.23235
3.23545
3.25019
3.26015
3.2726
3.27765
3.29127
3.30649
3.34308
3.44287
3.57032
3.86322
4.7022
8.42953
12.251
12.9618
14.64
15.6225
16.3213
16.998
18.0263
18.9973
3.20483
3.22917
3.23678
3.25067
3.25944
3.27049
3.27758
3.29133
3.30671
3.34293
3.44285
3.5716
3.86358
4.75832
9.07085
12.4421
13.4273
15.0896
15.9512
16.6778
17.2789
18.1251
19.1484
3.20612
3.22868
3.2399
3.248
3.25957
3.27277
3.27828
3.28938
3.30647
3.34284
3.44276
3.57167
3.86235
4.82017
9.70668
12.7035
13.9476
15.5014
16.2652
16.9811
17.5052
18.2448
19.3348
3.202
3.22854
3.23753
3.24785
3.2589
3.27166
3.27622
3.28896
3.30632
3.34246
3.44289
3.57182
3.86461
4.9019
10.3264
12.9709
14.4343
15.8014
16.5238
17.1568
17.679
18.388
19.5536
3.2015
3.22712
3.23937
3.24785
3.25734
3.27316
3.27595
3.28991
3.30738
3.34236
3.44337
3.57175
3.87091
4.96624
10.8787
13.2436
14.8358
16.0716
16.6738
17.2841
17.7764
18.5553
19.5901
3.20395
3.2269
3.23772
3.25066
3.2572
3.27176
3.27499
3.28798
3.30632
3.34201
3.44551
3.5703
3.88271
5.04994
11.2899
13.4575
15.0928
16.2215
16.7428
17.3239
17.8233
18.7574
19.6826
3.20055
3.22326
3.23869
3.24845
3.25631
3.27252
3.27485
3.28989
3.30608
3.34177
3.44756
3.57134
3.89372
5.1103
11.6575
13.688
15.4231
16.2819
16.7786
17.3735
17.8939
18.9673
19.9931
3.19912
3.22476
3.23505
3.24982
3.25581
3.27191
3.27409
3.28802
3.30384
3.34239
3.45116
3.5704
3.90341
5.20828
11.9233
13.7723
15.476
16.2898
16.7768
17.344
17.9028
18.9778
20.598
3.1985
3.22041
3.23453
3.24825
3.25602
3.27129
3.27635
3.28901
3.3034
3.34125
3.45469
3.57069
3.90791
5.30524
12.1203
13.8435
15.5794
16.2915
16.733
17.3005
17.9159
18.9648
20.9603
3.1925
3.2203
3.235
3.24778
3.25247
3.27032
3.27411
3.28883
3.30437
3.34105
3.45887
3.57297
3.92306
5.41288
12.3564
13.8191
15.5693
16.2141
16.681
17.2697
17.9029
18.9998
20.8755
3.19112
3.22013
3.23056
3.24508
3.25165
3.2684
3.27526
3.28806
3.30317
3.34097
3.46163
3.57587
3.93051
5.54854
12.4349
13.8378
15.541
16.0349
16.5988
17.2485
17.9103
19.0262
21.4443
3.19396
3.21869
3.2301
3.24336
3.24979
3.26648
3.27473
3.2864
3.30244
3.3407
3.46592
3.58293
3.96148
5.70433
12.4052
13.8255
15.197
15.9018
16.5394
17.3215
18.4862
19.5656
21.9387
3.18817
3.21717
3.23175
3.24249
3.24851
3.2643
3.27381
3.28483
3.30128
3.34013
3.46972
3.58724
3.97882
5.84746
12.4222
13.6062
14.847
15.685
16.4342
17.4097
19.0114
20.3881
22.3696
3.19396
3.21632
3.23256
3.23768
3.24713
3.26242
3.27082
3.28182
3.30065
3.33998
3.47448
3.59657
4.01631
6.05086
12.4572
13.4982
14.5918
15.5849
16.3711
17.6568
19.0618
20.8966
23.1975
3.18846
3.21454
3.23127
3.23699
3.24654
3.25792
3.26885
3.28074
3.29787
3.3387
3.4762
3.60004
4.06571
6.26415
12.4018
13.317
14.2687
15.3845
16.253
17.617
19.1064
21.0395
23.0781
3.19151
3.21165
3.22779
3.23728
3.24849
3.25702
3.26776
3.27896
3.2977
3.33961
3.47925
3.61167
4.08492
6.31962
12.4466
13.2613
14.1773
15.3378
16.2567
17.6277
19.1269
21.3693
23.2087
3.18834
3.20855
3.22188
3.23811
3.24752
3.25653
3.26265
3.27738
3.29343
3.33838
3.47815
3.60838
4.08536
6.25179
11.9605
13.0489
13.9428
15.1431
16.0709
17.5472
19.1741
20.9298
23.2625
3.18363
3.20434
3.2139
3.23513
3.24547
3.25444
3.26085
3.27766
3.29227
3.33644
3.47478
3.60784
4.07343
6.28781
11.2595
12.774
13.7163
14.914
15.8672
17.5787
19.0881
20.8598
23.4431
3.17308
3.19705
3.21117
3.23133
3.23832
3.25049
3.26108
3.27247
3.29343
3.33419
3.46945
3.6052
4.06298
6.21609
10.5687
12.3674
13.3652
14.4804
15.7363
17.2572
19.0757
20.8509
22.8858
3.16557
3.1919
3.21181
3.22189
3.23308
3.24388
3.25856
3.26861
3.2915
3.33128
3.46171
3.60236
4.07838
6.0875
9.75871
11.8674
12.8749
13.9125
15.3643
16.6317
18.3274
19.8003
21.3539
3.15694
3.18846
3.20686
3.21546
3.22637
3.24303
3.25405
3.26211
3.287
3.32659
3.45152
3.59649
4.07054
5.92485
9.08827
11.2635
12.2579
13.1946
14.6696
15.7588
17.0818
18.2291
19.4704
3.14511
3.18164
3.19951
3.20644
3.21853
3.2387
3.24875
3.25365
3.28169
3.3208
3.43893
3.58947
4.06047
5.74981
8.55696
10.6227
11.6291
12.4779
13.8455
14.757
15.6831
16.5629
17.6045
3.14403
3.17336
3.19177
3.19837
3.21655
3.23221
3.24292
3.2522
3.2744
3.31308
3.42456
3.583
4.03186
5.60315
8.18865
9.92422
10.9286
11.6185
12.896
13.6279
14.3353
15.0382
15.8245
3.13642
3.1636
3.17828
3.19491
3.2093
3.22451
3.23371
3.24545
3.26664
3.30476
3.40995
3.55216
4.00582
5.47599
7.9759
9.3435
10.2306
11.0151
11.9388
12.5673
13.0822
13.6762
14.5101
3.12483
3.15037
3.16432
3.18347
3.19832
3.21396
3.22281
3.23555
3.25656
3.29418
3.39436
3.54008
3.92317
5.37707
7.7893
8.927
9.57852
10.2874
11.1305
11.6991
12.1646
12.6094
13.227
3.11127
3.13585
3.15528
3.17066
3.18492
3.2013
3.20824
3.22472
3.24599
3.28313
3.37892
3.53268
3.96155
5.35567
7.66081
8.76558
9.15848
9.68383
10.3504
10.8632
11.3492
12.0458
12.7768
3.09405
3.11856
3.14096
3.15547
3.1682
3.1847
3.19347
3.21115
3.23226
3.26898
3.36112
3.51331
3.88309
5.17581
7.61391
8.48303
8.9837
9.39404
9.95317
10.3194
10.8179
11.3995
12.1755
3.07508
3.10043
3.12251
3.13983
3.15176
3.16784
3.17436
3.19641
3.21792
3.25454
3.34425
3.49426
3.83926
5.2015
7.26415
8.40158
8.77006
9.08054
9.66063
10.0396
10.4056
11.2708
12.3091
3.05158
3.07817
3.09958
3.11981
3.13227
3.14792
3.15073
3.17711
3.19916
3.23582
3.32326
3.47758
3.88413
4.88535
7.2648
8.31654
8.77736
9.10622
9.38386
9.71051
10.2527
11.673
13.0411
3.0265
3.05441
3.07651
3.09839
3.11251
3.12794
3.13302
3.15782
3.1799
3.21698
3.30342
3.45971
3.92723
4.98872
7.44496
8.29664
8.82562
9.30234
9.43718
9.76741
10.6074
12.4917
13.262
2.9959
3.02508
3.04894
3.07107
3.08712
3.10239
3.11251
3.1328
3.15449
3.19197
3.27708
3.43514
3.99424
5.14988
7.59269
8.44293
8.90743
9.18335
9.48684
10.2602
10.8498
12.3023
13.9062
2.9639
2.99458
3.0207
3.04247
3.06041
3.07588
3.08945
3.10671
3.12869
3.16696
3.25131
3.40652
3.89332
4.89178
7.81414
8.70451
8.95607
9.15678
9.7074
10.7009
11.6156
13.4292
14.2065
2.9248
2.95714
2.98508
3.00621
3.02555
3.0411
3.05637
3.07198
3.09409
3.13275
3.21575
3.37511
4.06021
4.90728
7.51838
8.62345
8.97733
9.18592
9.88393
10.7603
12.7082
13.2679
15.1974
2.88441
2.91905
2.94814
2.96865
2.98934
3.0052
3.02113
3.03669
3.05923
3.0984
3.18008
3.3312
3.96686
5.00592
7.49704
8.6288
8.9562
9.31267
10.253
10.7253
12.9598
14.2608
14.6429
2.83491
2.87164
2.90115
2.92078
2.94236
2.95811
2.97367
2.9896
3.01191
3.05072
3.12888
3.2772
4.01153
4.95989
7.86421
9.00793
9.04435
9.22538
9.97241
10.9167
13.5491
13.9857
15.7381
2.78488
2.82427
2.85361
2.87236
2.89493
2.91071
2.92612
2.94311
2.96526
3.00332
3.08269
3.15247
3.95406
5.17466
7.50053
8.75719
9.09545
9.52003
9.88596
11.8731
13.0478
15.0547
16.2878
2.72335
2.76422
2.79309
2.81056
2.83339
2.84852
2.86326
2.88066
2.90167
2.93769
3.01283
3.11752
3.64114
5.5148
7.51347
8.97963
9.06338
9.2357
10.3859
11.3412
13.8708
15.3925
15.6412
2.66303
2.70591
2.73407
2.75061
2.77368
2.78855
2.80364
2.82156
2.84153
2.87558
2.94233
3.1281
3.62586
5.05424
7.53677
8.77967
8.67206
8.86489
9.5114
12.1185
14.0282
14.5706
13.7296
2.58788
2.63053
2.65775
2.67306
2.69499
2.70877
2.72359
2.74089
2.75871
2.78938
2.84674
3.01884
3.74504
5.14052
8.09395
8.74856
8.49279
8.97795
9.77539
12.2289
13.2552
12.8628
11.8139
2.51726
2.56074
2.58699
2.60191
2.62281
2.63639
2.65199
2.66897
2.68538
2.71313
2.76264
2.89978
3.59071
5.43767
7.39595
8.28237
8.07588
8.05356
9.93477
11.7278
11.9328
11.1219
10.3186
2.42664
2.46771
2.49231
2.50612
2.52423
2.53642
2.55151
2.56687
2.58058
2.60407
2.64528
2.74471
3.37114
4.71687
7.25925
7.93527
7.4748
8.15324
9.6494
10.7799
10.3782
9.52333
9.03577
2.34707
2.38784
2.41117
2.42501
2.44125
2.45334
2.46882
2.48353
2.49633
2.5163
2.55213
2.62288
3.12062
4.54837
7.57063
7.75385
7.15018
7.73398
9.09295
9.55189
8.87395
8.3222
7.98961
2.23907
2.27527
2.29555
2.30739
2.31981
2.32991
2.34354
2.35568
2.36592
2.38086
2.40987
2.45834
2.78816
4.62837
6.64286
7.08141
6.92753
7.21407
8.27155
8.18693
7.54701
7.12362
7.00796
2.15527
2.19054
2.20889
2.22049
2.23117
2.24094
2.25418
2.26554
2.27572
2.28728
2.31309
2.34754
2.54944
4.04537
6.83043
6.92014
6.38489
6.59891
7.45627
7.09419
6.51381
6.29742
6.2494
2.02604
2.05425
2.06671
2.07407
2.08111
2.0883
2.09822
2.10601
2.1136
2.1203
2.13886
2.16155
2.26539
3.35882
6.24463
6.483
5.68076
6.05396
6.44938
5.89132
5.43354
5.33167
5.30771
1.95355
1.98094
1.98993
1.99652
2.00016
2.00568
2.01452
2.02154
2.02867
2.03448
2.04946
2.07232
2.13861
2.93328
5.40893
6.18125
5.05934
5.57003
5.65253
5.15242
4.90602
4.88099
4.87036
1.77668
1.78644
1.78514
1.78482
1.78755
1.78921
1.79304
1.79553
1.79936
1.79982
1.80826
1.82228
1.84474
2.22218
4.37798
6.0532
4.38854
4.73801
4.7573
4.12603
3.82564
3.78596
3.73503
3.08751
2.76619
2.57778
2.46268
2.38174
2.33131
2.29908
2.26983
2.25465
2.23869
2.2314
2.226
2.22888
2.2381
2.25788
2.29361
2.35136
2.44839
2.55164
2.66096
2.79462
2.8834
3.01136
3.09779
2.77822
2.59319
2.47655
2.3953
2.34249
2.30395
2.27389
2.25951
2.24184
2.23351
2.22693
2.22942
2.23826
2.25776
2.29314
2.35078
2.45018
2.53337
2.66426
2.76297
2.8649
2.96318
3.10965
2.79997
2.60808
2.48341
2.4043
2.34769
2.31043
2.27902
2.26214
2.24323
2.2345
2.2275
2.22983
2.23824
2.25662
2.29012
2.34509
2.43611
2.52229
2.65321
2.73426
2.86627
2.93154
3.12472
2.81323
2.62082
2.49978
2.42432
2.35952
2.32037
2.2851
2.26632
2.24587
2.23655
2.22884
2.2308
2.2386
2.25567
2.28809
2.33997
2.42786
2.51202
2.64032
2.72681
2.85516
2.92461
3.13429
2.82992
2.64266
2.51946
2.43319
2.36329
2.32358
2.28718
2.26776
2.24665
2.23825
2.23006
2.23175
2.23894
2.25393
2.28683
2.33401
2.42235
2.50394
2.63408
2.71491
2.83549
2.89974
3.14525
2.84671
2.65905
2.52554
2.43805
2.36946
2.33016
2.29155
2.27192
2.25067
2.24159
2.23152
2.23254
2.23873
2.25033
2.28772
2.33193
2.42151
2.4997
2.62216
2.70321
2.82828
2.89761
3.15219
2.85495
2.66662
2.53186
2.44701
2.37731
2.33509
2.2959
2.27462
2.25247
2.24246
2.23175
2.23257
2.23892
2.24913
2.29651
2.33696
2.42556
2.5034
2.62749
2.71045
2.83299
2.91088
3.1528
2.85188
2.66488
2.52984
2.44273
2.3724
2.3298
2.29079
2.2695
2.24717
2.23734
2.22686
2.22715
2.234
2.24562
2.28411
2.32777
2.40975
2.50663
2.6163
2.70984
2.83613
2.90386
2.92631
2.5989
2.43327
2.34769
2.29897
2.25609
2.23116
2.2219
2.21332
2.20243
2.20027
2.20915
2.23866
2.32374
2.4669
2.65743
2.89406
3.16181
3.50205
3.93615
4.3113
4.8001
5.23076
2.93896
2.6054
2.43677
2.35203
2.30245
2.26006
2.23627
2.22612
2.21675
2.20474
2.19934
2.20451
2.22212
2.27211
2.38162
2.5561
2.77845
3.04546
3.37706
3.81326
4.16397
4.62813
5.04325
2.9411
2.61022
2.4433
2.35671
2.30633
2.26557
2.23981
2.22763
2.21864
2.20765
2.20129
2.20591
2.22215
2.26067
2.34527
2.49216
2.69731
2.94842
3.26642
3.69722
4.00614
4.44507
4.84013
2.95455
2.61761
2.44875
2.3606
2.30876
2.26931
2.24335
2.2301
2.22057
2.2103
2.20274
2.20656
2.2184
2.24389
2.30222
2.42124
2.60538
2.84296
3.15081
3.55429
3.83642
4.24694
4.63186
2.95797
2.6235
2.45761
2.36708
2.31346
2.27387
2.24809
2.2328
2.22332
2.21473
2.20602
2.20862
2.21923
2.24321
2.28886
2.37953
2.53516
2.75657
3.03617
3.41285
3.6621
4.07453
4.4389
2.97247
2.63259
2.46453
2.37184
2.31722
2.27888
2.25083
2.23501
2.22485
2.21829
2.20952
2.21171
2.22038
2.24094
2.27875
2.35089
2.48007
2.6802
2.93111
3.26814
3.51625
3.92045
4.20429
2.97703
2.64044
2.47498
2.37896
2.32151
2.28257
2.2554
2.23834
2.22689
2.22125
2.21286
2.21448
2.22174
2.24097
2.27474
2.33455
2.43674
2.61899
2.8224
3.14993
3.36641
3.73156
3.98852
2.99299
2.65137
2.48429
2.38602
2.32732
2.28739
2.2586
2.24204
2.22948
2.22416
2.21597
2.21737
2.22353
2.2412
2.27221
2.32715
2.41927
2.57355
2.75353
3.03468
3.23537
3.57638
3.78426
2.99853
2.66091
2.4941
2.39364
2.33207
2.29238
2.26207
2.2455
2.23152
2.22565
2.21841
2.21952
2.22551
2.24113
2.26928
2.31894
2.39997
2.53936
2.68601
2.93451
3.11318
3.41937
3.59087
3.01627
2.67528
2.50632
2.40228
2.33831
2.29643
2.26642
2.24983
2.23534
2.22758
2.22029
2.22081
2.22621
2.24102
2.26815
2.31554
2.39232
2.51703
2.64835
2.85446
3.01606
3.27598
3.43095
3.02255
2.68487
2.51543
2.4116
2.3447
2.30332
2.26953
2.25338
2.23845
2.22949
2.22236
2.22206
2.22699
2.24025
2.26576
2.30964
2.37937
2.49567
2.61483
2.79696
2.92911
3.13364
3.296
3.04145
2.70423
2.52926
2.42065
2.35037
2.30696
2.27534
2.25686
2.2422
2.23091
2.22398
2.22276
2.22739
2.2398
2.26443
2.3066
2.37424
2.48279
2.60068
2.73999
2.86046
3.06819
3.20578
3.04824
2.71316
2.53894
2.43254
2.35924
2.31482
2.27914
2.26017
2.24596
2.23334
2.22593
2.22394
2.22805
2.23957
2.26271
2.30317
2.36764
2.46934
2.58827
2.70454
2.83675
3.00451
3.11373
3.06597
2.73548
2.55272
2.44122
2.36461
2.31856
2.28643
2.26293
2.24862
2.23456
2.22743
2.22459
2.22841
2.23927
2.26156
2.30067
2.36371
2.46007
2.58424
2.67701
2.83339
2.9418
3.06699
3.07442
2.74703
2.56494
2.45539
2.37593
2.32707
2.29055
2.26613
2.25227
2.23721
2.22995
2.2255
2.22866
2.23889
2.26018
2.29802
2.35901
2.45512
2.56758
2.66788
2.82345
2.91193
3.05026
2.84825
2.79285
2.86422
2.93762
3.03008
3.0634
3.11097
3.14344
3.15628
3.17897
3.20146
3.24481
3.29307
3.36512
3.47608
3.6452
3.88015
4.16848
4.51331
4.90938
5.25199
5.56573
5.96948
2.83171
2.75266
2.81451
2.90005
3.00373
3.03735
3.10017
3.12729
3.15557
3.17899
3.19873
3.2397
3.28883
3.36251
3.47233
3.63608
3.87789
4.16796
4.51369
4.93405
5.29356
5.63728
6.0492
2.82063
2.7116
2.77176
2.86133
2.9677
3.00802
3.07473
3.11183
3.14996
3.17168
3.1981
3.23682
3.28525
3.35854
3.46729
3.62884
3.86866
4.16313
4.5092
4.95226
5.32448
5.6934
6.11512
2.8195
2.66999
2.71812
2.81247
2.92855
2.97401
3.05383
3.09021
3.1432
3.16522
3.19253
3.23086
3.28028
3.35512
3.46375
3.62124
3.85913
4.15897
4.5072
4.961
5.36111
5.76173
6.18065
2.81823
2.6299
2.66996
2.76687
2.88879
2.94218
3.02443
3.06644
3.1243
3.15191
3.18764
3.22357
3.27452
3.35023
3.45754
3.61323
3.84767
4.15128
4.50174
4.95903
5.3837
5.81785
6.24669
2.82361
2.59741
2.61719
2.71072
2.83821
2.90001
2.99369
3.03497
3.10212
3.13831
3.17688
3.21364
3.26701
3.34468
3.45247
3.60497
3.83541
4.13813
4.49355
4.9496
5.39906
5.85806
6.29313
2.82883
2.56426
2.56877
2.65974
2.78747
2.85687
2.95565
3.00357
3.07274
3.11678
3.15826
3.20154
3.25731
3.33756
3.44414
3.5967
3.82296
4.12021
4.4787
4.93508
5.40182
5.8884
6.32641
2.83505
2.53972
2.52054
2.5986
2.73027
2.80698
2.91409
2.96332
3.04344
3.0888
3.13743
3.18432
3.24442
3.32804
3.4358
3.58648
3.80949
4.10352
4.4602
4.9097
5.39529
5.89268
6.34023
2.84469
2.52277
2.47955
2.54532
2.66745
2.75084
2.86698
2.91905
3.00396
3.06358
3.10703
3.16327
3.22827
3.31639
3.42405
3.57425
3.79627
4.08166
4.44297
4.87585
5.3864
5.88829
6.33711
2.85204
2.51123
2.43993
2.49042
2.60527
2.69146
2.81064
2.86797
2.96393
3.02449
3.07487
3.13612
3.20751
3.30085
3.41095
3.56075
3.78133
4.06199
4.42517
4.84323
5.36849
5.87753
6.32692
2.86016
2.51387
2.41286
2.44065
2.54062
2.62478
2.75215
2.81112
2.91406
2.987
3.03722
3.10488
3.18306
3.28211
3.39409
3.54432
3.76542
4.04037
4.40331
4.81185
5.34102
5.85243
6.30878
2.86411
2.51465
2.38817
2.39941
2.47978
2.55986
2.68382
2.748
2.86296