/*--------------------------------*- C++ -*----------------------------------*\
  =========                 |
  \\      /  F ield         | OpenFOAM: The Open Source CFD Toolbox
   \\    /   O peration     | Website:  https://openfoam.org
    \\  /    A nd           | Version:  7
     \\/     M anipulation  |
\*---------------------------------------------------------------------------*/
FoamFile
{
    version     2.0;
    format      ascii;
    class       volScalarField;
    location    "50";
    object      p;
}
// * * * * * * * * * * * * * * * * * * * * * * * * * * * * * * * * * * * * * //

dimensions      [0 2 -2 0 0 0 0];

internalField   nonuniform List<scalar> 
12842
(
0.957676
1.02886
1.11665
1.24051
1.3757
1.49535
1.58956
1.66245
1.72882
1.81449
1.95582
2.19531
2.57391
3.12218
3.8524
4.75238
5.78677
6.9026
8.0376
9.13093
10.1326
11.0108
11.7515
0.958526
1.04624
1.12558
1.24264
1.35292
1.41604
1.41572
1.35049
1.23193
1.08805
0.963332
0.913109
0.993576
1.25044
1.7091
2.36765
3.19815
4.15223
5.16948
6.18755
7.15334
8.02562
8.79009
0.967603
1.05585
1.12893
1.24255
1.32867
1.3368
1.24555
1.04826
0.754195
0.395318
0.0258549
-0.285705
-0.46965
-0.469482
-0.25293
0.181532
0.807711
1.5792
2.43891
3.32771
4.19728
5.00271
5.73682
0.981346
1.05528
1.12598
1.24045
1.30418
1.26057
1.08317
0.759986
0.298718
-0.262738
-0.859022
-1.40845
-1.82992
-2.06061
-2.06736
-1.85098
-1.43968
-0.877996
-0.215763
0.497245
1.22411
1.91991
2.58712
0.993271
1.04677
1.11813
1.23811
1.28148
1.19033
0.932053
0.489095
-0.131972
-0.885535
-1.69417
-2.46367
-3.10396
-3.55026
-3.77328
-3.78021
-3.60232
-3.2799
-2.85003
-2.34772
-1.7944
-1.23586
-0.659561
0.999986
1.0331
1.1068
1.23811
1.26333
1.13068
0.798818
0.244807
-0.525872
-1.4584
-2.46338
-3.43577
-4.27933
-4.93148
-5.37025
-5.61128
-5.68771
-5.63188
-5.46282
-5.19759
-4.84114
-4.44258
-3.97992
1.00063
1.01562
1.09346
1.24288
1.25241
1.08692
0.691444
0.0387379
-0.867404
-1.9618
-3.14411
-4.30136
-5.33396
-6.18534
-6.84273
-7.33044
-7.68114
-7.91568
-8.03142
-8.02729
-7.89149
-7.67946
-7.35567
0.996767
0.99488
1.07907
1.25193
1.24739
1.05933
0.612033
-0.123623
-1.14727
-2.38321
-3.72251
-5.04794
-6.25849
-7.30594
-8.18575
-8.92959
-9.56682
-10.1056
-10.5208
-10.7965
-10.9031
-10.9057
-10.7458
0.98543
0.970514
1.0675
1.26819
1.25404
1.05704
0.574088
-0.221287
-1.33296
-2.67471
-4.13111
-5.58612
-6.93863
-8.15062
-9.2229
-10.1924
-11.0834
-11.8931
-12.5767
-13.1111
-13.4451
-13.6656
-13.6577
0.97721
0.943806
1.06291
1.28925
1.26641
1.0652
0.552626
-0.291329
-1.47377
-2.89854
-4.44411
-5.99933
-7.46321
-8.8084
-10.0389
-11.1955
-12.2972
-13.3336
-14.2454
-15.0058
-15.5479
-15.969
-16.1316
0.967687
0.916334
1.06483
1.30945
1.27647
1.07014
0.525916
-0.367075
-1.61912
-3.12472
-4.75584
-6.4094
-7.98322
-9.46092
-10.8472
-12.1854
-13.4905
-14.7472
-15.8861
-16.8803
-17.6488
-18.2956
-18.6649
0.955826
0.888954
1.07275
1.32707
1.28416
1.07123
0.49378
-0.44838
-1.76846
-3.35286
-5.06608
-6.81621
-8.49772
-10.1055
-11.6423
-13.1541
-14.653
-16.1235
-17.4894
-18.7268
-19.7405
-20.6367
-21.2385
0.941218
0.862718
1.08529
1.34197
1.29159
1.07146
0.46122
-0.528536
-1.91344
-3.57351
-5.36429
-7.2081
-8.99341
-10.727
-12.4081
-14.0858
-15.7718
-17.4545
-19.0535
-20.5478
-21.826
-22.9923
-23.8504
0.923965
0.839346
1.10072
1.35463
1.30044
1.07315
0.432262
-0.602271
-2.04772
-3.78006
-5.64411
-7.57959
-9.46586
-11.3224
-13.1432
-14.9813
-16.8502
-18.7455
-20.5849
-22.3495
-23.9093
-25.3604
-26.4928
0.904692
0.820658
1.11755
1.36595
1.31172
1.07775
0.409424
-0.666476
-2.16783
-3.96956
-5.90395
-7.93161
-9.91926
-11.8997
-13.8595
-15.8555
-17.9054
-20.0139
-22.099
-24.1419
-25.9935
-27.736
-29.1507
0.883992
0.807747
1.13437
1.37684
1.32576
1.08586
0.393749
-0.720119
-2.27302
-4.14242
-6.14611
-8.26935
-10.3622
-12.4713
-14.5729
-16.7273
-18.9571
-21.2776
-23.6073
-25.9256
-28.0654
-30.0926
-31.7841
0.86236
0.80079
1.15005
1.38781
1.34211
1.09727
0.385128
-0.763483
-2.36393
-4.3
-6.37299
-8.59667
-10.8002
-13.0446
-15.2929
-17.6074
-20.0148
-22.5403
-25.1034
-27.6814
-30.0929
-32.3877
-34.3401
0.840203
0.799288
1.16382
1.39919
1.36015
1.11156
0.38298
-0.797385
-2.44166
-4.44375
-6.58616
-8.91512
-11.2346
-13.6204
-16.0196
-18.4936
-21.072
-23.7869
-26.5618
-29.3718
-32.0259
-34.5572
-36.7494
0.818273
0.802178
1.1753
1.41093
1.37905
1.12811
0.386359
-0.822934
-2.50744
-4.57457
-6.78548
-9.22279
-11.6606
-14.1907
-16.7408
-19.3688
-22.1048
-24.9853
-27.9403
-30.9417
-33.7946
-36.5118
-38.9006
0.797564
0.808072
1.18455
1.42289
1.39833
1.14651
0.394506
-0.841147
-2.5625
-4.69352
-6.97088
-9.51759
-12.0728
-14.7457
-17.4415
-20.2108
-23.0835
-26.0964
-29.1869
-32.3235
-35.3129
-38.1436
-40.6561
0.779077
0.815522
1.19155
1.43432
1.41706
1.16579
0.40626
-0.853093
-2.6078
-4.80098
-7.14131
-9.79641
-12.4649
-15.2754
-18.1069
-20.9998
-23.9824
-27.0878
-30.258
-33.4615
-36.5089
-39.3596
-41.9046
0.762974
0.823772
1.19713
1.44601
1.43645
1.1872
0.42243
-0.858704
-2.64389
-4.89803
-7.2969
-10.0586
-12.8344
-15.7755
-18.7315
-21.7274
-24.7888
-27.9409
-31.126
-34.3194
-37.337
-40.1126
-42.593
0.750131
0.831409
1.20027
1.45574
1.45387
1.20807
0.440847
-0.859085
-2.67127
-4.9845
-7.43734
-10.3034
-13.1803
-16.2459
-19.3165
-22.3953
-25.5004
-28.6494
-31.7778
-34.869
-37.7687
-40.3934
-42.7056
0.737488
0.839369
1.20543
1.47021
1.47633
1.23328
0.462582
-0.85682
-2.69268
-5.05933
-7.55352
-10.5117
-13.4763
-16.6557
-19.8334
-22.9807
-26.1018
-29.2083
-32.2143
-35.1112
-37.8163
-40.2301
-42.2817
0.732557
0.84961
1.21407
1.48703
1.49808
1.25413
0.476423
-0.863806
-2.7222
-5.13587
-7.66341
-10.7015
-13.7437
-17.0264
-20.3032
-23.5038
-26.6066
-29.6206
-32.4283
-35.0313
-37.4463
-39.5862
-41.3525
0.734476
0.861787
1.22463
1.50346
1.51547
1.26482
0.472517
-0.896723
-2.78572
-5.2519
-7.81587
-10.9326
-14.0482
-17.4258
-20.7906
-24.024
-27.0649
-29.9221
-32.4627
-34.7107
-36.7609
-38.5585
-39.9912
0.741052
0.87346
1.23359
1.51475
1.52314
1.26041
0.44781
-0.954996
-2.87831
-5.39746
-7.99661
-11.1868
-14.3692
-17.8336
-21.2783
-24.5345
-27.4843
-30.135
-32.3769
-34.2442
-35.8578
-37.2325
-38.2933
0.747402
0.882409
1.23883
1.51967
1.52131
1.24352
0.408382
-1.02815
-2.98452
-5.55249
-8.1811
-11.4374
-14.6789
-18.2232
-21.7431
-25.0209
-27.8655
-30.2776
-32.2022
-33.6509
-34.771
-35.6963
-36.3789
0.751128
0.888046
1.24018
1.51916
1.51255
1.21896
0.361974
-1.10522
-3.09023
-5.70052
-8.3511
-11.6662
-14.9598
-18.5794
-22.1725
-25.4763
-28.2154
-30.3708
-31.9536
-32.9579
-33.6028
-34.1022
-34.4052
0.75246
0.891175
1.23891
1.5154
1.50022
1.1917
0.315242
-1.17802
-3.18612
-5.83211
-8.49773
-11.8664
-15.2077
-18.901
-22.5684
-25.9073
-28.5563
-30.4529
-31.6868
-32.2848
-32.5214
-32.6306
-32.5605
0.752442
0.89297
1.2366
1.51055
1.48729
1.16555
0.272707
-1.24172
-3.26755
-5.9436
-8.61868
-12.0377
-15.4243
-19.1916
-22.9375
-26.3259
-28.9213
-30.5903
-31.5165
-31.7829
-31.6475
-31.3429
-30.8622
0.751884
0.894278
1.23438
1.50609
1.47558
1.14257
0.236273
-1.29513
-3.33444
-6.03673
-8.71745
-12.1854
-15.6163
-19.4589
-23.2917
-26.7503
-29.3527
-30.8693
-31.5596
-31.5709
-31.1195
-30.4011
-29.4874
0.751216
0.895579
1.23284
1.50262
1.46571
1.12308
0.205601
-1.33977
-3.38987
-6.11637
-8.80022
-12.3165
-15.7901
-19.7087
-23.6402
-27.1942
-29.8839
-31.3695
-31.915
-31.7518
-31.111
-30.1086
-28.8173
0.750593
0.897053
1.2321
1.50018
1.45752
1.10644
0.17914
-1.37856
-3.43826
-6.18858
-8.87402
-12.4379
-15.9518
-19.9452
-23.9907
-27.6681
-30.5373
-32.1454
-32.6232
-32.3572
-31.7004
-30.5938
-29.0338
0.750034
0.898761
1.23207
1.49852
1.45049
1.09159
0.155053
-1.4144
-3.48363
-6.25833
-8.94396
-12.5538
-16.1035
-20.1682
-24.3434
-28.1732
-31.3137
-33.1993
-33.7179
-33.5377
-33.1828
-32.1897
-30.5358
0.74949
0.900668
1.23255
1.49731
1.44408
1.07761
0.131851
-1.44953
-3.52886
-6.32894
-9.01319
-12.6664
-16.246
-20.3755
-24.6949
-28.7083
-32.1988
-34.5313
-35.3676
-35.5477
-35.729
-35.1785
-33.6736
0.748916
0.902745
1.23337
1.49629
1.43787
1.06383
0.108571
-1.48521
-3.57536
-6.40174
-9.08236
-12.7752
-16.3769
-20.5617
-25.0363
-29.2662
-33.1699
-36.1371
-37.6964
-38.4412
-39.0685
-39.2469
-38.4629
0.748286
0.90494
1.23434
1.49528
1.43164
1.04993
0.0847979
-1.52193
-3.62345
-6.47671
-9.15082
-12.8787
-16.4936
-20.7218
-25.3569
-29.8367
-34.2019
-37.9499
-40.6185
-42.3512
-43.6377
-44.6201
-45.0259
0.747613
0.90724
1.2354
1.49419
1.42529
1.0358
0.0604786
-1.55956
-3.67267
-6.55283
-9.21682
-12.9742
-16.5924
-20.8498
-25.6421
-30.3973
-35.2568
-39.8622
-43.8785
-47.0122
-49.4833
-51.6129
-53.2846
0.74693
0.909616
1.23646
1.49303
1.41883
1.0215
0.0358061
-1.5977
-3.72218
-6.62879
-9.27851
-13.0597
-16.6701
-20.9413
-25.8765
-30.9155
-36.2869
-41.7599
-47.2193
-52.0887
-56.0397
-59.5159
-62.3556
0.746299
0.912074
1.23755
1.49182
1.41232
1.00716
0.0110261
-1.63585
-3.7711
-6.70325
-9.33405
-13.1329
-16.7234
-20.9917
-26.0426
-31.3511
-37.2418
-43.543
-50.3338
-57.0326
-62.8675
-67.7741
-71.5395
0.745774
0.914599
1.23865
1.49062
1.40584
0.992908
-0.0136025
-1.67358
-3.81865
-6.77514
-9.38212
-13.1927
-16.7498
-20.9985
-26.1251
-31.6664
-38.0687
-45.1465
-53.1634
-61.3577
-68.9989
-75.3513
-79.9547
0.745416
0.917199
1.2398
1.48946
1.39942
0.978819
-0.0379158
-1.71055
-3.86429
-6.8437
-9.42175
-13.2382
-16.7469
-20.9598
-26.1098
-31.8248
-38.7295
-46.547
-55.6713
-65.048
-73.9739
-81.5283
-86.9424
0.745263
0.919862
1.241
1.48838
1.39312
0.964957
-0.0617982
-1.74657
-3.90766
-6.90853
-9.45247
-13.2695
-16.7127
-20.8758
-25.9851
-31.7972
-39.1867
-47.7431
-57.618
-67.7095
-77.7772
-86.351
-92.4463
0.745343
0.922588
1.24228
1.48738
1.3869
0.951307
-0.0852367
-1.78159
-3.94864
-6.96955
-9.47417
-13.2872
-16.6454
-20.7483
-25.74
-31.5403
-39.2516
-48.5822
-58.9279
-69.5116
-80.4785
-90.0013
-96.6837
0.745677
0.925369
1.24364
1.48646
1.38078
0.937855
-0.108236
-1.8156
-3.98719
-7.02684
-9.48694
-13.2923
-16.5431
-20.5816
-25.3539
-31.0254
-38.9038
-48.9991
-59.7049
-71.1905
-82.4236
-92.1165
-99.2078
0.746194
0.928172
1.24508
1.4856
1.37469
0.924525
-0.130902
-1.84877
-4.02358
-7.08091
-9.49126
-13.2865
-16.4045
-20.3822
-24.7824
-30.2525
-38.1638
-48.288
-58.8467
-71.0985
-82.4842
-91.783
-98.7039
0.746966
0.93103
1.24662
1.48479
1.36862
0.911251
-0.15336
-1.88135
-4.05818
-7.1325
-9.48798
-13.2721
-16.2286
-20.1544
-23.9906
-29.471
-37.0528
-46.103
-56.0701
-68.1969
-79.6622
-88.829
-95.7331
0.746839
0.933464
1.24806
1.48401
1.36268
0.898148
-0.175708
-1.91397
-4.09263
-7.18423
-9.4822
-13.2567
-16.0245
-19.9098
-23.0205
-28.9698
-35.5522
-42.9903
-52.1803
-63.4699
-74.7089
-84.0042
-91.0425
0.747847
0.936494
1.25034
1.4842
1.35767
0.885693
-0.198356
-1.94873
-4.13188
-7.24412
-9.48924
-13.2599
-15.8248
-19.6823
-22.0273
-28.7085
-33.5611
-39.3823
-47.8772
-58.1934
-68.9139
-78.0883
-85.0263
0.750418
0.940389
1.25415
1.48601
1.35421
0.873919
-0.222635
-1.98936
-4.18358
-7.32386
-9.52966
-13.3082
-15.6799
-19.5436
-21.2164
-28.2277
-31.2234
-35.8356
-43.6864
-53.0461
-62.8811
-71.6493
-78.2146
0.754549
0.945046
1.25946
1.4892
1.35163
0.861345
-0.251389
-2.04071
-4.25514
-7.43396
-9.61889
-13.4232
-15.6352
-19.5674
-20.7583
-27.3681
-28.9363
-32.8968
-40.0576
-48.4195
-57.1526
-65.6276
-71.8212
0.759562
0.949878
1.26552
1.49275
1.34847
0.845859
-0.287523
-2.10654
-4.35093
-7.57925
-9.76275
-13.6125
-15.7197
-19.7853
-20.8158
-26.2535
-26.967
-30.8162
-37.3016
-44.8559
-52.5533
-60.978
-66.9541
0.765002
0.954477
1.27169
1.49581
1.34357
0.825909
-0.332897
-2.18876
-4.4721
-7.75947
-9.95813
-13.8687
-15.9385
-20.1613
-21.3098
-25.1333
-25.678
-29.6767
-35.6057
-42.6775
-49.5923
-58.0997
-64.0322
0.770841
0.958805
1.2777
1.498
1.33655
0.801403
-0.38667
-2.2846
-4.6125
-7.96328
-10.1868
-14.1619
-16.2582
-20.5944
-22.052
-24.2503
-25.2825
-29.4855
-35.0462
-41.8587
-48.2874
-56.8276
-62.8098
0.776872
0.962737
1.28332
1.49907
1.32716
0.772219
-0.448526
-2.39276
-4.76866
-8.18343
-10.4346
-14.4645
-16.6396
-21.0026
-22.9475
-23.6739
-25.6007
-30.0684
-35.4301
-42.043
-48.2299
-56.612
-62.6052
0.783715
0.966937
1.28923
1.49994
1.31664
0.740239
-0.515436
-2.50828
-4.93288
-8.40821
-10.6835
-14.7509
-17.0397
-21.2957
-23.7915
-23.3224
-26.1967
-30.9594
-36.2235
-42.5795
-48.5529
-56.4805
-62.2565
0.790537
0.970795
1.2948
1.49982
1.30446
0.705623
-0.585464
-2.62604
-5.09476
-8.62026
-10.9055
-14.9791
-17.4061
-21.4668
-24.5761
-23.4271
-27.031
-31.9756
-37.2022
-43.3232
-48.9676
-56.1923
-61.5796
0.797027
0.974014
1.29922
1.4979
1.28966
0.667653
-0.658659
-2.7448
-5.25148
-8.81461
-11.0957
-15.1386
-17.7017
-21.4594
-25.1209
-23.88
-27.9228
-32.8511
-38.0022
-43.8722
-49.0009
-55.2963
-60.0552
0.802968
0.976501
1.30235
1.49424
1.27266
0.627332
-0.733246
-2.86198
-5.40017
-8.98876
-11.2532
-15.2285
-17.8996
-21.2476
-25.314
-24.4016
-28.6161
-33.3476
-38.1985
-43.6309
-48.0769
-53.1742
-56.9667
0.808683
0.978743
1.30493
1.48994
1.25507
0.587013
-0.805946
-2.97332
-5.5361
-9.13819
-11.374
-15.2475
-17.9846
-20.8408
-25.1472
-24.8327
-28.9763
-33.3751
-37.6869
-42.4048
-46.1354
-49.7862
-52.4746
0.814388
0.981073
1.30755
1.48581
1.23806
0.548286
-0.874736
-3.07653
-5.65748
-9.26257
-11.4603
-15.2045
-17.9654
-20.2814
-24.6817
-25.1062
-28.9616
-32.9697
-36.6176
-40.3625
-43.3573
-45.589
-47.1447
0.820106
0.983572
1.31036
1.48209
1.22194
0.511514
-0.939402
-3.17201
-5.76637
-9.36725
-11.5223
-15.1218
-17.8749
-19.6417
-24.0231
-25.197
-28.6113
-32.1987
-35.1958
-37.8234
-39.9226
-41.029
-41.5087
0.825781
0.986194
1.31334
1.47875
1.20663
0.476439
-1.00065
-3.26143
-5.86658
-9.45994
-11.5737
-15.0265
-17.7566
-19.0063
-23.2935
-25.1162
-28.0108
-31.1463
-33.4937
-35.1408
-36.2429
-36.4779
-36.126
0.83138
0.988891
1.31641
1.47565
1.19188
0.442599
-1.05942
-3.34676
-5.96202
-9.54809
-11.6274
-14.9435
-17.6533
-18.455
-22.6112
-24.9148
-27.2593
-29.9204
-31.5281
-32.4726
-32.7741
-32.3181
-31.4407
0.836877
0.991614
1.3195
1.47266
1.17749
0.409599
-1.11652
-3.42952
-6.05556
-9.63699
-11.6919
-14.8895
-17.5967
-18.0436
-22.064
-24.626
-26.4248
-28.6067
-29.4302
-29.8541
-29.6909
-28.7685
-27.5961
0.842266
0.994338
1.32255
1.4697
1.16327
0.377136
-1.17251
-3.51072
-6.14897
-9.72968
-11.7717
-14.8732
-17.605
-17.7992
-21.701
-24.3105
-25.5532
-27.2813
-27.4227
-27.3733
-26.9652
-25.7886
-24.4701
0.847534
0.997038
1.32553
1.4667
1.14915
0.34505
-1.22768
-3.59087
-6.24291
-9.827
-11.8669
-14.8948
-17.682
-17.7209
-21.4968
-24.0018
-24.7317
-26.0155
-25.6458
-25.1449
-24.5582
-23.2784
-21.9263
0.852682
0.999707
1.3284
1.46361
1.13504
0.313249
-1.28218
-3.67013
-6.33738
-9.92845
-11.9751
-14.9491
-17.8207
-17.7882
-21.3783
-23.5867
-24.0217
-24.8361
-24.1183
-23.2185
-22.4377
-21.1705
-19.8894
0.857702
1.00233
1.33115
1.46043
1.12095
0.281722
-1.33602
-3.74841
-6.43184
-10.0325
-12.0921
-15.027
-18.0054
-17.9637
-21.2985
-23.0021
-23.377
-23.7365
-22.7877
-21.5529
-20.5812
-19.3975
-18.2406
0.862599
1.00491
1.33379
1.45714
1.10686
0.250461
-1.38917
-3.82557
-6.52567
-10.1374
-12.2133
-15.1178
-18.2169
-18.2038
-21.2429
-22.3222
-22.7374
-22.6853
-21.6039
-20.0943
-18.9626
-17.8811
-16.8178
0.867367
1.00744
1.33628
1.45375
1.09278
0.219485
-1.44157
-3.90136
-6.61806
-10.241
-12.3336
-15.2104
-18.4337
-18.4651
-21.208
-21.6286
-22.0846
-21.6442
-20.4872
-18.8247
-17.572
-16.5195
-15.4574
0.872013
1.00992
1.33865
1.45024
1.07869
0.188787
-1.49318
-3.97563
-6.70836
-10.3418
-12.449
-15.295
-18.6366
-18.7087
-21.1846
-20.9658
-21.4236
-20.6318
-19.4148
-17.7252
-16.3732
-15.2393
-14.0653
0.876531
1.01234
1.34087
1.44661
1.06458
0.158368
-1.54397
-4.04815
-6.79586
-10.438
-12.5556
-15.363
-18.8078
-18.9129
-21.1684
-20.3484
-20.7532
-19.6812
-18.4185
-16.7325
-15.2741
-13.9622
-12.618
0.880928
1.0147
1.34294
1.44285
1.05044
0.12821
-1.59391
-4.11878
-6.88006
-10.5282
-12.6509
-15.4081
-18.9342
-19.0458
-21.1485
-19.7715
-20.0489
-18.81
-17.4875
-15.7631
-14.1494
-12.6131
-11.1075
0.885193
1.01699
1.34484
1.43892
1.03625
0.0983059
-1.64295
-4.18732
-6.96039
-10.6114
-12.7326
-15.425
-19.0088
-19.0933
-21.1098
-19.2409
-19.2628
-18.0048
-16.5883
-14.7437
-12.9265
-11.1886
-9.57468
0.889329
1.0192
1.34657
1.43482
1.02198
0.0686372
-1.69107
-4.25362
-7.03644
-10.6867
-12.7994
-15.4112
-19.0306
-19.0598
-20.986
-18.795
-18.408
-17.2377
-15.688
-13.6668
-11.6546
-9.78644
-8.12905
0.893325
1.02134
1.34811
1.43053
1.0076
0.0392037
-1.73819
-4.31748
-7.10777
-10.7533
-12.8505
-15.3648
-18.9955
-18.9677
-20.7497
-18.4753
-17.6777
-16.4674
-14.7407
-12.5626
-10.4266
-8.5081
-6.86321
0.89718
1.02338
1.34944
1.42602
0.993105
0.0100021
-1.78427
-4.37875
-7.17406
-10.8107
-12.8856
-15.2857
-18.9003
-18.7646
-20.4282
-18.3038
-17.1628
-15.6629
-13.74
-11.4554
-9.27354
-7.35659
-5.75349
0.900878
1.02533
1.35055
1.42127
0.978475
-0.0189539
-1.82922
-4.4372
-7.23495
-10.8583
-12.9048
-15.175
-18.7498
-18.434
-19.9247
-18.1155
-16.718
-14.8447
-12.7245
-10.3713
-8.1968
-6.31082
-4.76786
0.904418
1.02719
1.35142
1.41627
0.963696
-0.047652
-1.87296
-4.49267
-7.2902
-10.8961
-12.9086
-15.0347
-18.552
-18.0263
-19.1693
-17.7483
-16.1999
-14.0625
-11.7616
-9.36205
-7.21712
-5.40224
-3.93569
0.907783
1.02892
1.35204
1.411
0.948762
-0.0760668
-1.91541
-4.54496
-7.33953
-10.9237
-12.8976
-14.8671
-18.3125
-17.602
-18.2662
-17.1728
-15.568
-13.2946
-10.8691
-8.46528
-6.3872
-4.66608
-3.28354
0.910971
1.03055
1.3524
1.40544
0.933667
-0.104175
-1.95648
-4.59392
-7.3828
-10.9411
-12.8726
-14.6755
-18.0361
-17.1952
-17.3554
-16.4565
-14.8439
-12.5102
-10.0308
-7.67463
-5.69971
-4.06415
-2.77059
0.913962
1.03204
1.35247
1.39958
0.918409
-0.131947
-1.99607
-4.63934
-7.41979
-10.948
-12.8345
-14.4634
-17.7265
-16.8172
-16.5188
-15.6628
-14.0595
-11.7213
-9.2427
-6.9704
-5.1122
-3.57193
-2.36829
0.916755
1.0334
1.35224
1.39341
0.902982
-0.159356
-2.03411
-4.6811
-7.45041
-10.9447
-12.7841
-14.2349
-17.3883
-16.4684
-15.7926
-14.8543
-13.2474
-10.951
-8.52291
-6.36996
-4.62182
-3.20698
-2.08289
0.91933
1.03462
1.35171
1.3869
0.887387
-0.186369
-2.07049
-4.719
-7.47449
-10.9309
-12.722
-13.9935
-17.0256
-16.1412
-15.1892
-14.0834
-12.4548
-10.2356
-7.90401
-5.88303
-4.25215
-2.97053
-1.91367
0.921686
1.03568
1.35084
1.38006
0.871621
-0.212961
-2.10514
-4.75293
-7.49198
-10.9068
-12.6491
-13.7434
-16.6443
-15.8223
-14.7092
-13.3822
-11.7518
-9.6094
-7.3784
-5.48042
-3.98357
-2.81498
-1.82621
0.9238
1.03658
1.34963
1.37286
0.855682
-0.2391
-2.13798
-4.7827
-7.50272
-10.8723
-12.5657
-13.4877
-16.2506
-15.4849
-14.3483
-12.766
-11.1632
-9.06808
-6.91941
-5.16352
-3.78732
-2.70976
-1.80557
0.925671
1.03731
1.34806
1.36528
0.839566
-0.26476
-2.16892
-4.80819
-7.50668
-10.8274
-12.4721
-13.2298
-15.8552
-15.1107
-14.0671
-12.2541
-10.6462
-8.57958
-6.5394
-4.92391
-3.67423
-2.66488
-1.84725
0.927274
1.03785
1.34611
1.35732
0.823271
-0.289908
-2.19788
-4.8292
-7.5037
-10.7719
-12.3682
-12.9712
-15.4684
-14.7399
-13.7767
-11.834
-10.1794
-8.14841
-6.24082
-4.75623
-3.62244
-2.67974
-1.93161
0.928609
1.0382
1.34376
1.34895
0.806793
-0.314516
-2.22476
-4.8456
-7.49375
-10.7061
-12.2542
-12.7135
-15.0911
-14.4211
-13.4203
-11.4623
-9.78235
-7.79482
-6.02424
-4.66811
-3.61962
-2.75165
-2.05308
0.929646
1.03834
1.34099
1.34016
0.790131
-0.338551
-2.24949
-4.85718
-7.4767
-10.6296
-12.1292
-12.4572
-14.7149
-14.1502
-13.0101
-11.1114
-9.46037
-7.51859
-5.86816
-4.62902
-3.65109
-2.85174
-2.19883
0.930393
1.03826
1.33779
1.33092
0.773283
-0.361971
-2.27194
-4.86377
-7.45247
-10.5425
-11.9932
-12.2029
-14.3313
-13.8879
-12.5775
-10.7973
-9.20613
-7.30988
-5.76059
-4.60586
-3.69033
-2.95417
-2.35212
0.930792
1.03794
1.33413
1.32122
0.756225
-0.384799
-2.29214
-4.86532
-7.4212
-10.4449
-11.844
-11.9512
-13.948
-13.6011
-12.1839
-10.5333
-8.97698
-7.15376
-5.71282
-4.61784
-3.74702
-3.06167
-2.50377
0.931009
1.03744
1.33002
1.31104
0.73898
-0.406903
-2.30976
-4.86127
-7.38215
-10.3365
-11.6834
-11.6996
-13.5517
-13.2606
-11.8561
-10.2932
-8.75222
-7.04235
-5.70672
-4.67253
-3.83946
-3.18581
-2.65468
0.930873
1.03671
1.32538
1.30014
0.720906
-0.429572
-2.3269
-4.85416
-7.33867
-10.2189
-11.5011
-11.4501
-13.2105
-12.9224
-11.5714
-10.0488
-8.52938
-6.9335
-5.66626
-4.67342
-3.88106
-3.26241
-2.76423
0.933219
1.03715
1.321
1.28808
0.700596
-0.454661
-2.34425
-4.8413
-7.28064
-10.0811
-11.3201
-11.1666
-12.6283
-12.3297
-11.127
-9.73698
-8.32529
-6.86461
-5.68111
-4.75595
-4.01186
-3.42054
-2.93638
0.932234
1.03436
1.31267
1.271
0.676012
-0.481049
-2.35563
-4.81129
-7.1878
-9.89691
-11.1321
-10.9436
-12.1953
-12.0012
-10.8794
-9.53096
-8.19751
-6.82243
-5.69194
-4.80495
-4.08817
-3.51552
-3.05352
0.929096
1.02885
1.29986
1.24835
0.646239
-0.509168
-2.36044
-4.76272
-7.06
-9.66782
-10.9156
-10.6956
-11.7035
-11.6386
-10.6017
-9.31227
-8.04702
-6.76743
-5.69847
-4.84515
-4.15424
-3.60405
-3.16119
0.923809
1.02059
1.28247
1.22029
0.611467
-0.539006
-2.35938
-4.69744
-6.90329
-9.3974
-10.6411
-10.3566
-11.042
-11.0431
-10.165
-9.00422
-7.84158
-6.69047
-5.70329
-4.8977
-4.24514
-3.72811
-3.3012
0.917599
1.01057
1.26192
1.18878
0.57482
-0.565763
-2.34552
-4.60645
-6.70762
-9.07023
-10.2833
-9.92525
-10.2829
-10.2834
-9.61453
-8.62392
-7.60437
-6.59213
-5.70069
-4.96455
-4.36874
-3.8944
-3.49147
0.911028
0.999348
1.23914
1.15526
0.538929
-0.584821
-2.31131
-4.47847
-6.45744
-8.6653
-9.82611
-9.42309
-9.51759
-9.48556
-8.9959
-8.19828
-7.33485
-6.46189
-5.68408
-5.03581
-4.51042
-4.08312
-3.71667
0.90355
0.986543
1.21381
1.11966
0.504532
-0.594102
-2.25269
-4.3068
-6.14291
-8.17061
-9.2655
-8.86364
-8.77021
-8.69994
-8.31807
-7.71112
-6.99832
-6.27642
-5.62428
-5.07658
-4.62828
-4.26004
-3.93914
0.894232
0.971338
1.185
1.08117
0.471236
-0.593265
-2.16846
-4.08951
-5.76187
-7.58611
-8.60622
-8.24633
-8.02098
-7.90566
-7.59151
-7.13248
-6.56879
-6.00193
-5.47992
-5.03768
-4.66865
-4.3655
-4.09484
0.882441
0.953017
1.15186
1.039
0.438629
-0.582293
-2.05866
-3.82774
-5.31869
-6.92217
-7.85975
-7.56762
-7.25594
-7.0774
-6.821
-6.46794
-6.04648
-5.61777
-5.21905
-4.87299
-4.58176
-4.33868
-4.12069
0.867761
0.931042
1.11382
0.992811
0.406893
-0.560626
-1.92342
-3.52434
-4.82213
-6.19602
-7.04265
-6.82803
-6.47472
-6.22681
-6.00526
-5.746
-5.43459
-5.11819
-4.82173
-4.56199
-4.344
-4.15913
-3.99135
0.849958
0.904999
1.07059
0.942721
0.376849
-0.527201
-1.7632
-3.18409
-4.28479
-5.42948
-6.17667
-6.03599
-5.6789
-5.38168
-5.16905
-4.97855
-4.74597
-4.51797
-4.3031
-4.11542
-3.95548
-3.82202
-3.70045
0.828755
0.87452
1.02209
0.889289
0.349825
-0.480811
-1.57928
-2.81393
-3.72197
-4.64664
-5.28768
-5.20953
-4.87644
-4.55328
-4.34521
-4.18899
-4.01567
-3.84964
-3.69566
-3.5618
-3.44842
-3.35336
-3.26522
0.803932
0.839313
0.968463
0.833411
0.327322
-0.420803
-1.37478
-2.42353
-3.15114
-3.87253
-4.40429
-4.37384
-4.08471
-3.75297
-3.55402
-3.41887
-3.27997
-3.15424
-3.04137
-2.94327
-2.86005
-2.79041
-2.72837
0.775202
0.799131
0.910088
0.776261
0.31072
-0.34761
-1.15501
-2.02497
-2.59073
-3.13156
-3.55627
-3.55798
-3.32637
-3.00414
-2.81249
-2.69266
-2.57379
-2.47309
-2.38415
-2.30902
-2.24663
-2.19477
-2.14732
0.742371
0.753891
0.847604
0.719107
0.300804
-0.263389
-0.927793
-1.63226
-2.05909
-2.44646
-2.77176
-2.79118
-2.62228
-2.32799
-2.14541
-2.033
-1.92982
-1.84436
-1.77114
-1.70938
-1.65824
-1.61619
-1.57904
0.70524
0.703613
0.781838
0.663152
0.297415
-0.172192
-0.702918
-1.26011
-1.57313
-1.83631
-2.07477
-2.09976
-1.99021
-1.7387
-1.5731
-1.46705
-1.37263
-1.29612
-1.23129
-1.17708
-1.1324
-1.09624
-1.06454
0.663781
0.648608
0.71382
0.609195
0.299056
-0.0799284
-0.491264
-0.922402
-1.14688
-1.315
-1.48255
-1.50519
-1.44618
-1.24583
-1.10112
-1.0049
-0.918696
-0.849839
-0.791198
-0.741841
-0.700452
-0.667251
-0.638443
0.618026
0.589356
0.644544
0.55743
0.302897
0.00635171
-0.303318
-0.63075
-0.789988
-0.889829
-1.00324
-1.01924
-0.997784
-0.852047
-0.731814
-0.648085
-0.572127
-0.510476
-0.458183
-0.413387
-0.37546
-0.344627
-0.317919
0.568294
0.52666
0.574931
0.507207
0.30501
0.0794882
-0.147783
-0.392931
-0.506873
-0.561166
-0.636127
-0.644946
-0.64769
-0.554519
-0.4588
-0.390368
-0.327355
-0.275401
-0.230083
-0.190442
-0.155899
-0.127262
-0.10325
0.515035
0.461434
0.505526
0.457143
0.30112
0.133479
-0.0301837
-0.212172
-0.296553
-0.323284
-0.373044
-0.376888
-0.391887
-0.344655
-0.273665
-0.221658
-0.172349
-0.13086
-0.0935384
-0.06031
-0.0313773
-0.00746253
0.0113523
0.459018
0.394775
0.436569
0.405419
0.287533
0.164619
0.0478346
-0.0868741
-0.15299
-0.165211
-0.199566
-0.201805
-0.219998
-0.207855
-0.161326
-0.123897
-0.0875716
-0.0564327
-0.0280174
-0.00245459
0.0200421
0.0379656
0.0500708
0.401144
0.327757
0.36797
0.350424
0.26208
0.172198
0.0886258
-0.0111182
-0.0660731
-0.0723548
-0.097519
-0.10128
-0.117477
-0.127804
-0.104803
-0.0808552
-0.0556339
-0.0327101
-0.011164
0.00763222
0.0233638
0.0346135
0.0403368
0.342505
0.261512
0.299727
0.291423
0.224724
0.158517
0.0979154
0.0241042
-0.0233637
-0.0286884
-0.0479982
-0.0550911
-0.0678857
-0.0885529
-0.0850867
-0.0729538
-0.0567903
-0.0410102
-0.0257604
-0.0127811
-0.00298996
0.00248653
0.00300854
0.284264
0.197235
0.232259
0.229045
0.177638
0.128309
0.0835507
0.0292712
-0.0120419
-0.0187972
-0.0338566
-0.0443474
-0.0548328
-0.0771226
-0.0868848
-0.0842262
-0.0758272
-0.0665335
-0.0572756
-0.0496176
-0.0449881
-0.0441814
-0.0472252
0.227658
0.136379
0.166798
0.16548
0.124739
0.0877058
0.0541258
0.0147722
-0.020399
-0.0291818
-0.0407819
-0.0531796
-0.062867
-0.0822203
-0.0985815
-0.102736
-0.100295
-0.0955876
-0.0906526
-0.0870615
-0.0861712
-0.088149
-0.0927087
0.174013
0.0807352
0.105616
0.104165
0.0710246
0.0432039
0.0177701
-0.0102974
-0.0391123
-0.0496202
-0.0586823
-0.071241
-0.0811918
-0.0967557
-0.114566
-0.122908
-0.124724
-0.123269
-0.121425
-0.121004
-0.122995
-0.127113
-0.132877
0.124858
0.0327016
0.0519495
0.0495066
0.0219956
0.001199
-0.0181219
-0.0379053
-0.0604143
-0.071702
-0.0790944
-0.0902829
-0.10035
-0.112761
-0.128848
-0.1389
-0.142946
-0.143552
-0.143544
-0.144851
-0.147938
-0.152446
-0.158072
0.0813
-0.00530774
0.00946554
0.00635266
-0.0165858
-0.0319514
-0.0465955
-0.0607337
-0.0777976
-0.0891596
-0.096065
-0.105678
-0.115649
-0.126249
-0.139844
-0.150216
-0.155402
-0.157485
-0.158696
-0.160977
-0.164578
-0.169158
-0.174403
0.047216
-0.0296742
-0.0171307
-0.019746
-0.0384113
-0.0493744
-0.0600356
-0.0701053
-0.0823304
-0.0923534
-0.0985146
-0.105828
-0.114216
-0.122682
-0.132869
-0.141646
-0.146314
-0.148338
-0.149184
-0.150695
-0.153215
-0.156426
-0.159909
0.0148809
-0.042121
-0.0271597
-0.025579
-0.0381066
-0.0443447
-0.0517175
-0.0605758
-0.0722978
-0.0850701
-0.0964059
-0.108562
-0.122254
-0.136877
-0.152562
-0.165675
-0.17305
-0.177511
-0.180303
-0.183206
-0.18664
-0.190397
-0.194053
0.0250968
-0.0203431
-0.00660985
-0.00255552
-0.0067397
-0.0039717
0.000346154
0.00462157
0.00850456
0.0120432
0.0169368
0.022386
0.0266773
0.0304993
0.0345691
0.0380657
0.0418698
0.0453277
0.0480209
0.0489313
0.0484834
0.0475308
0.0467953
0.743016
0.646
0.739241
0.906699
1.14353
1.49123
1.98723
2.67256
3.58383
4.74343
6.15637
7.81803
9.72092
11.8535
14.1946
16.6955
19.2815
21.8547
24.3116
26.5596
28.5343
30.1983
31.5706
0.760076
0.70862
0.783441
0.952299
1.18658
1.52119
1.99542
2.6476
3.5135
4.61865
5.97314
7.57521
9.41554
11.4765
13.7273
16.113
18.555
20.9574
23.2221
25.2666
27.0362
28.5093
29.705
0.780547
0.774608
0.838326
1.00113
1.22966
1.54628
1.98859
2.59283
3.39354
4.41877
5.68412
7.19254
8.93579
10.8932
13.0279
15.28
17.5681
19.7977
21.8752
23.7258
25.3031
26.5986
27.6317
0.80623
0.839935
0.902732
1.05499
1.27368
1.56851
1.97128
2.51563
3.23434
4.15678
5.30342
6.68285
8.29058
10.1068
12.0929
14.1872
16.3081
18.3629
20.2616
21.9353
23.3427
24.4842
25.3782
0.839695
0.900553
0.971424
1.11267
1.31719
1.58627
1.94319
2.4174
3.03943
3.83875
4.83971
6.05665
7.49101
9.12728
10.9296
12.8388
14.776
16.652
18.3807
19.8965
21.1609
22.1777
22.9643
0.881142
0.951757
1.03362
1.16596
1.35254
1.59108
1.89574
2.29047
2.80258
3.46091
4.29218
5.3165
6.54213
7.96103
9.54412
11.239
12.9734
14.6645
16.2311
17.6098
18.7623
19.6896
20.4057
0.922988
0.986969
1.07599
1.20305
1.37117
1.5752
1.82123
2.12667
2.51491
3.01311
3.64969
4.44985
5.42979
6.59109
7.9154
9.36124
10.8673
12.3604
13.7667
15.0254
16.0972
16.9753
17.6664
0.951976
1.01047
1.10243
1.2296
1.38367
1.55177
1.73218
1.93558
2.18094
2.49386
2.90502
3.44603
4.14309
5.0102
6.0429
7.21378
8.47488
9.7644
11.0161
12.171
13.1859
14.0428
14.7375
0.586332
0.207051
0.466637
0.541814
0.774241
1.1511
1.63235
2.42717
3.469
4.75904
6.29572
7.97456
9.83716
11.8681
14.0877
16.4452
18.8528
21.193
23.3558
25.2608
26.8645
28.1778
29.2086
0.589437
0.216497
0.468426
0.547076
0.77954
1.15426
1.63803
2.43249
3.47631
4.77619
6.32847
8.04859
9.97
12.0894
14.4223
16.9237
19.5074
22.0566
24.4573
26.6173
28.481
30.0425
31.2984
0.593781
0.229808
0.473264
0.553999
0.786833
1.15707
1.64023
2.42844
3.46733
4.76814
6.32597
8.07529
10.0429
12.2354
14.6648
17.2898
20.0261
22.758
25.3698
27.7597
29.8629
31.6556
33.1285
0.599139
0.24723
0.483544
0.565549
0.80047
1.1662
1.64813
2.42686
3.45635
4.75071
6.30473
8.07015
10.0694
12.3175
14.8239
17.5496
20.4119
23.2959
26.0851
28.671
30.9816
32.9771
34.6458
0.605654
0.26815
0.500307
0.583877
0.823564
1.18676
1.66878
2.43712
3.45474
4.73726
6.27945
8.0484
10.0643
12.3491
14.9116
17.7139
20.6739
23.6774
26.607
29.3492
31.8275
33.9884
35.8207
0.613388
0.291748
0.523437
0.609676
0.856719
1.22039
1.70516
2.46389
3.46907
4.73632
6.26063
8.02189
10.0398
12.3426
14.9396
17.7935
20.8227
23.9124
26.9441
29.8006
32.4025
34.6858
36.6418
0.622458
0.31613
0.549824
0.639996
0.895572
1.26251
1.75333
2.5054
3.50078
4.75399
6.25982
8.00774
10.0178
12.3227
14.9336
17.8141
20.8831
24.025
27.1198
30.0476
32.7273
35.0873
37.1223
0.632809
0.339878
0.575722
0.670942
0.934485
1.30679
1.80718
2.55721
3.54849
4.79353
6.28636
8.02218
10.0208
12.3172
14.9246
17.8079
20.8874
24.0471
27.1657
30.1213
32.8326
35.2235
37.2947
0.644332
0.363571
0.599256
0.700455
0.969761
1.34815
1.85978
2.61118
3.60307
4.84598
6.33294
8.06159
10.0503
12.3337
14.926
17.7938
20.859
24.0061
27.1129
30.0569
32.7571
35.136
37.201
0.656858
0.388584
0.619652
0.727644
0.998675
1.38167
1.90343
2.65678
3.65106
4.89553
6.38243
8.10968