/*--------------------------------*- C++ -*----------------------------------*\
  =========                 |
  \\      /  F ield         | OpenFOAM: The Open Source CFD Toolbox
   \\    /   O peration     | Website:  https://openfoam.org
    \\  /    A nd           | Version:  7
     \\/     M anipulation  |
\*---------------------------------------------------------------------------*/
FoamFile
{
    version     2.0;
    format      ascii;
    class       surfaceScalarField;
    location    "50";
    object      phi;
}
// * * * * * * * * * * * * * * * * * * * * * * * * * * * * * * * * * * * * * //

dimensions      [0 3 -1 0 0 0 0];

internalField   nonuniform List<scalar> 
25449
(
67.6813
50.4783
-26.3621
50.2129
37.4108
-19.9423
37.4363
27.8669
-15.0903
28.0214
20.8378
-11.4228
21.0419
15.6316
-8.65217
15.8428
11.7604
-6.56128
11.9549
8.87253
-4.98461
9.03846
6.71241
-3.796
6.84554
5.09258
-2.89965
5.19364
3.87485
-2.22295
3.94773
2.95696
-1.71106
3.00733
2.26311
-1.32271
2.29731
1.73696
-1.02695
1.76131
1.3366
-0.8006
1.35686
1.03082
-0.626379
1.05191
0.796344
-0.491399
0.822205
0.615801
-0.386096
0.649357
0.476257
-0.30341
0.519426
0.368073
-0.238142
0.421837
0.284049
-0.18646
0.348581
0.218757
-0.145502
0.293593
0.168096
-0.113107
0.128801
-0.0875438
0.252336
52.5598
68.8052
39.1722
50.7985
29.3152
37.7239
22.0146
28.1384
16.5802
21.066
12.5184
15.8221
9.47246
11.9185
7.18202
9.00285
5.45604
6.81855
4.1534
5.17748
3.16932
3.94104
2.4256
3.00683
1.8636
2.29896
1.43915
1.76105
1.11888
1.35109
0.877517
1.03771
0.695869
0.79745
0.559358
0.612768
0.456909
0.470523
0.380106
0.360852
0.322572
0.276291
0.279474
0.211194
0.161069
0.247207
39.8684
82.2667
29.9083
60.7587
22.5024
45.1298
16.9755
33.6653
12.8367
25.2048
9.7283
18.9305
7.38793
14.2589
5.62211
10.7687
4.28755
8.15312
3.27778
6.18726
2.51337
4.70545
1.93474
3.58545
1.49702
2.73668
1.16626
2.09182
0.916662
1.60068
0.728621
1.22575
0.587199
0.938871
0.481019
0.718947
0.401423
0.550118
0.341826
0.420448
0.297238
0.320879
0.263875
0.244557
0.186024
0.23892
29.8843
91.8528
22.6407
68.0024
17.1697
50.6008
13.038
37.797
9.91504
28.3277
7.55239
21.2932
5.763
16.0483
4.40625
12.1254
3.37658
9.18279
2.59476
6.96907
2.00125
5.29896
1.55101
4.03569
1.20991
3.07778
0.951926
2.3498
0.757175
1.79543
0.610448
1.37247
0.50012
1.0492
0.417313
0.801755
0.355261
0.61217
0.308815
0.466893
0.274072
0.355622
0.248079
0.270549
0.205472
0.228631
22.3111
98.4396
17.1535
73.1601
13.1583
54.5961
10.0844
40.8709
7.72776
30.6843
5.92558
23.0953
4.549
17.4248
3.498
13.1764
2.69577
9.98502
2.08375
7.58109
1.61737
5.76534
1.26254
4.39052
0.993149
3.34717
0.789106
2.55384
0.634933
1.94961
0.518705
1.4887
0.431265
1.13664
0.365598
0.86742
0.316356
0.661412
0.279465
0.503784
0.251838
0.383248
0.231147
0.29124
0.220977
0.215641
16.6956
102.742
13.111
76.7447
10.2181
57.489
7.9279
43.1612
6.13519
32.477
4.74328
24.4872
3.66759
18.5005
2.83869
14.0053
2.20122
10.6225
1.71189
8.07042
1.33718
6.14006
1.05099
4.67671
0.833085
3.56508
0.667688
2.71924
0.542514
2.07478
0.448016
1.5832
0.376816
1.20784
0.323252
0.920984
0.282998
0.701666
0.252767
0.534014
0.230069
0.405946
0.213025
0.308284
0.233784
0.200217
12.5988
105.319
10.1869
79.1567
8.10579
59.5701
6.38633
44.8806
5.00063
33.8627
3.90282
25.5851
3.04161
19.3617
2.37038
14.6766
1.84944
11.1434
1.44661
8.47326
1.13633
6.45033
0.898212
4.91483
0.716235
3.74706
0.577701
2.85778
0.472601
2.17988
0.393075
1.66272
0.333003
1.26791
0.287672
0.966313
0.253485
0.735852
0.227707
0.55979
0.208271
0.425381
0.193619
0.322936
0.244839
0.182564
9.64433
106.597
8.10135
80.6997
6.61262
61.0589
5.30391
46.1893
4.20771
34.9589
3.3171
26.4757
2.60579
20.073
2.04397
15.2384
1.60344
11.5839
1.25996
8.81674
0.993721
6.71658
0.78834
5.12021
0.630753
3.90465
0.510385
2.97815
0.418798
2.27147
0.34928
1.73224
0.296575
1.32061
0.256626
1.00626
0.226343
0.766135
0.203381
0.582752
0.185974
0.442789
0.172776
0.336134
0.25484
0.162775
7.11153
109.038
5.32069
82.4906
4.00804
62.3716
3.03871
47.1587
2.31762
35.68
1.77873
27.0146
1.37303
20.4787
1.06576
15.5456
0.831799
11.8179
0.653032
8.9955
0.516435
6.85317
0.412118
5.22453
0.332707
3.98406
0.272447
3.03841
0.226858
2.31706
0.192423
1.76668
0.166411
1.34662
0.14673
1.02594
0.13181
0.781054
0.120475
0.594087
0.11185
0.451414
0.105289
0.342695
0.25985
0.100279
5.04319
110.778
3.77181
83.7621
2.84548
63.2979
2.16389
47.8402
1.65817
36.1857
1.28093
27.3918
0.996797
20.7629
0.781144
15.7613
0.616344
11.9827
0.489839
9.12201
0.392782
6.95023
0.318356
5.29896
0.261535
4.04089
0.21832
3.08163
0.185569
2.34981
0.160776
1.79147
0.141978
1.36542
0.127671
1.04025
0.116735
0.79199
0.108341
0.602481
0.101878
0.457877
0.0969012
0.347671
0.263698
0.093053
3.49173
111.987
2.6121
84.6418
1.97585
63.9341
1.50959
48.3065
1.16474
36.5306
0.907992
27.6485
0.714376
20.9565
0.566872
15.9088
0.453497
12.0961
0.365835
9.20967
0.298162
7.01791
0.245935
5.35118
0.205875
4.08095
0.175284
3.11222
0.152017
2.37308
0.134323
1.80917
0.120814
1.37893
0.110426
1.05064
0.102378
0.800037
0.0961005
0.608757
0.0911808
0.462796
0.0873299
0.351522
0.266725
0.0843026
2.33856
112.798
1.75203
85.2283
1.33146
64.3547
1.02467
48.6133
0.798684
36.7565
0.630765
27.8165
0.503794
21.0834
0.406421
16.0062
0.330854
12.1717
0.271728
9.26879
0.225625
7.06401
0.189666
5.38715
0.161861
4.10876
0.140473
3.13361
0.124094
2.38946
0.111532
1.82173
0.101828
1.38864
0.0942398
1.05822
0.0882379
0.80604
0.0834474
0.613548
0.0796017
0.466642
0.0765248
0.354598
0.269194
0.0740555
1.49049
113.312
1.12107
85.5978
0.858926
64.6169
0.66873
48.8035
0.529362
36.8959
0.425983
27.9198
0.347366
21.1621
0.286321
16.0672
0.238133
12.2198
0.199645
9.30728
0.169123
7.09453
0.144883
5.41138
0.12588
4.12776
0.111074
3.14841
0.0996021
2.40093
0.0906815
1.83065
0.0836624
1.39566
0.0780414
1.06384
0.0734689
0.810611
0.0697099
0.617306
0.0666037
0.469748
0.0640545
0.357147
0.271286
0.0619617
0.876814
113.607
0.665988
85.8086
0.518265
64.7646
0.411786
48.9099
0.334309
36.9734
0.276875
27.9773
0.232607
21.2063
0.197321
16.1025
0.168516
12.2487
0.144605
9.33119
0.125061
7.11408
0.10904
5.42741
0.0961784
4.14063
0.0859357
3.15866
0.0778434
2.40903
0.0714155
1.83709
0.0662242
1.40085
0.0619338
1.06814
0.0583215
0.814224
0.0552504
0.620377
0.0526322
0.472365
0.0504277
0.359351
0.273135
0.0485782
0.435935
113.741
0.340347
85.9042
0.274514
64.8304
0.227486
48.957
0.193661
37.0072
0.16847
28.0025
0.148255
21.2265
0.130968
16.1198
0.115688
12.2639
0.101918
9.34495
0.0899853
7.12601
0.0796227
5.43777
0.0709542
4.14929
0.0637953
3.16581
0.057965
2.41486
0.0531922
1.84186
0.0492068
1.40483
0.0457897
1.07155
0.0428049
0.817207
0.0401818
0.623
0.037881
0.474665
0.0359014
0.36133
0.274826
0.0342094
0.129386
113.76
0.115176
85.9184
0.105994
64.8396
0.09961
48.9633
0.095313
37.0115
0.0917726
28.006
0.0876352
21.2307
0.0823294
16.1251
0.0760169
12.2702
0.0689244
9.35205
0.0619716
7.13296
0.0552624
5.44448
0.0492643
4.15529
0.0440371
3.17105
0.039605
2.41929
0.0358495
1.84562
0.0326063
1.40808
0.0297319
1.07443
0.0271431
0.819797
0.0248104
0.625332
0.022724
0.476751
0.0209029
0.36315
0.276399
0.0193293
-0.0794381
113.696
-0.03696
85.876
-0.00782794
64.8105
0.0127837
48.9427
0.0277769
36.9965
0.038222
27.9956
0.0444041
21.2245
0.0467398
16.1228
0.0461125
12.2709
0.0432051
9.35495
0.0393372
7.13683
0.0348365
5.44898
0.0304096
4.15971
0.0262813
3.17517
0.0226251
2.42295
0.0194318
1.84881
0.0166065
1.4109
0.0140515
1.07698
0.0117111
0.822136
0.00957903
0.627464
0.00765813
0.478671
0.00597963
0.364827
0.277858
0.00452066
-0.21499
113.574
-0.134409
85.7954
-0.0806675
64.7567
-0.0432663
48.9053
-0.0166204
36.9699
0.00210438
27.9768
0.0143222
21.2123
0.0210751
16.116
0.0236962
12.2683
0.0231238
9.35552
0.0209359
7.13902
0.017572
5.45234
0.0139014
4.16339
0.0102567
3.17882
0.00692075
2.42629
0.00396589
1.85177
0.00133942
1.41353
-0.00103396
1.07936
-0.00320632
0.824309
-0.00517808
0.629435
-0.00694654
0.480439
-0.00847869
0.366359
0.279187
-0.00980817
-0.296779
113.413
-0.191785
85.6904
-0.12343
64.6884
-0.0766815
48.8586
-0.0439365
36.9371
-0.0210721
27.954
-0.00592145
21.1971
0.00291348
16.1072
0.00701513
12.2642
0.00743122
9.3551
0.00589998
7.14054
0.00288899
5.45535
-0.000621728
4.16689
-0.00423223
3.18242
-0.00757703
2.42963
-0.0105214
1.85471
-0.0130947
1.41611
-0.0153684
1.08163
-0.017406
0.826345
-0.0192169
0.631246
-0.0208088
0.48203
-0.0221602
0.36771
0.28034
-0.0233147
-0.339583
113.226
-0.22014
85.571
-0.144401
64.6126
-0.0936829
48.8079
-0.058839
36.9023
-0.0348091
27.9299
-0.0189498
21.1813
-0.00970163
16.0979
-0.00538004
12.2598
-0.00493799
9.35466
-0.00654357
7.14215
-0.00976366
5.45857
-0.0135445
4.17068
-0.0174476
3.18633
-0.0210403
2.43322
-0.0241318
1.8578
-0.0267374
1.41871
-0.0289405
1.08383
-0.0308295
0.828235
-0.0324433
0.632859
-0.0338042
0.483391
-0.0349222
0.368827
0.281264
-0.0358458
-0.356251
113.021
-0.229096
85.4438
-0.1508
64.5343
-0.0996856
48.7567
-0.065381
36.868
-0.0421396
27.9067
-0.0270362
21.1662
-0.0184826
16.0894
-0.0147844
12.2561
-0.0149674
9.35483
-0.0171405
7.14432
-0.0209518
5.46237
-0.0252945
4.17501
-0.0297091
3.19074
-0.0337042
2.43721
-0.0370329
1.86113
-0.0396989
1.42138
-0.0418131
1.08594
-0.0435018
0.829923
-0.0448498
0.634206
-0.0459096
0.484449
-0.0467326
0.369649
0.281901
-0.0473706
-0.352538
112.807
-0.222942
85.3142
-0.145902
64.4573
-0.0972291
48.7081
-0.0655583
36.8363
-0.044643
27.8858
-0.0314164
21.1529
-0.024376
16.0823
-0.0219062
12.2537
-0.0231802
9.35611
-0.0262751
7.14741
-0.0309592
5.46706
-0.0360847
4.18014
-0.0411832
3.19584
-0.0457059
2.44174
-0.0493438
1.86477
-0.0520835
1.42412
-0.0540782
1.08794
-0.0555072
0.831351
-0.0565175
0.635216
-0.0572141
0.485144
-0.0576945
0.370129
0.282214
-0.0580087
-0.333866
112.587
-0.205641
85.186
-0.132536
64.3842
-0.0882654
48.6638
-0.0606898
36.8087
-0.0432248
27.8683
-0.0327846
21.1425
-0.0279891
16.0775
-0.0273176
12.253
-0.0301086
9.35889
-0.0344138
7.15171
-0.040181
5.47282
-0.0462435
4.18619
-0.05214
3.20173
-0.057274
2.44687
-0.0612689
1.86876
-0.0640843
1.42693
-0.065927
1.08978
-0.0670455
0.832468
-0.0676605
0.635829
-0.06794
0.485423
-0.0680336
0.370221
0.282162
-0.0679815
-0.545582
112.421
-0.42128
85.0617
-0.329622
64.2925
-0.260364
48.5945
-0.207848
36.7562
-0.167852
27.8283
-0.137595
21.1122
-0.115251
16.0552
-0.0993716
12.2371
-0.088921
9.34844
-0.0825099
7.1453
-0.0796354
5.46994
-0.0791836
4.18574
-0.0803716
3.20291
-0.0822243
2.44872
-0.0838909
1.87042
-0.0848878
1.42793
-0.0851612
1.09005
-0.0848556
0.832161
-0.0841665
0.63514
-0.083292
0.484547
-0.0824145
0.369343
0.281313
-0.0815663
-0.531185
112.265
-0.413651
84.9441
-0.32689
64.2058
-0.261184
48.5288
-0.211246
36.7063
-0.173104
27.7902
-0.144161
21.0833
-0.122744
16.0338
-0.107519
12.2219
-0.097548
9.33846
-0.0914837
7.13923
-0.0888804
5.46733
-0.0886408
4.18549
-0.0899899
3.20425
-0.0919194
2.45064
-0.0935085
1.87201
-0.0941948
1.42861
-0.0939236
1.08978
-0.0929094
0.831146
-0.0914506
0.633679
-0.0898578
0.482954
-0.0883748
0.367859
0.279978
-0.08704
-0.51699
112.118
-0.405803
84.833
-0.32362
64.1236
-0.261232
48.4664
-0.213698
36.6587
-0.177284
27.7537
-0.149566
21.0556
-0.129009
16.0132
-0.114388
12.2073
-0.104852
9.32892
-0.09909
7.13346
-0.0967137
5.46495
-0.096649
4.18543
-0.0981379
3.20574
-0.100152
2.45266
-0.101712
1.87357
-0.102171
1.42907
-0.101438
1.08904
-0.0997929
0.829498
-0.0976559
0.631542
-0.0954491
0.480746
-0.0934309
0.365839
0.278178
-0.0916319
-0.503058
111.979
-0.397853
84.7277
-0.319976
64.0457
-0.260707
48.4072
-0.215431
36.6135
-0.180636
27.719
-0.15406
21.029
-0.1343
15.9934
-0.120233
12.1932
-0.111085
9.31977
-0.105585
7.12796
-0.103396
5.46276
-0.103476
4.1855
-0.105095
3.20735
-0.10722
2.45477
-0.108825
1.87516
-0.109174
1.42941
-0.10811
1.08797
-0.105962
0.827349
-0.103266
0.628844
-0.100486
0.477965
-0.0978709
0.363221
0.275804
-0.0954989
-0.489422
111.848
-0.389876
84.6282
-0.316066
63.9719
-0.259743
48.3508
-0.216596
36.5703
-0.183324
27.6857
-0.157819
21.0035
-0.138797
15.9744
-0.125237
12.1796
-0.116435
9.31097
-0.111159
7.12268
-0.109124
5.46072
-0.109319
4.18569
-0.111063
3.20909
-0.113336
2.45704
-0.115079
1.87691
-0.115476
1.42981
-0.114263
1.08676
-0.111782
0.824864
-0.108593
0.625656
-0.105174
0.474545
-0.101877
0.359922
0.272858
-0.0989322
-0.476102
111.724
-0.381924
84.534
-0.311969
63.9019
-0.258436
48.2973
-0.217305
36.5292
-0.185471
27.6539
-0.160972
20.979
-0.142637
15.9561
-0.12954
12.1665
-0.121047
9.30247
-0.11596
7.11759
-0.114044
5.4588
-0.114329
4.18597
-0.116192
3.21095
-0.118659
2.4595
-0.12065
1.87889
-0.121284
1.43044
-0.120153
1.08562
-0.117505
0.822214
-0.113886
0.622034
-0.109918
0.470576
-0.106187
0.356188
0.269635
-0.102966
-0.46311
111.608
-0.374036
84.4449
-0.307742
63.8356
-0.256859
48.2464
-0.21764
36.4899
-0.187168
27.6234
-0.163617
20.9554
-0.145922
15.9384
-0.13325
12.1539
-0.125031
9.29425
-0.1201
7.11265
-0.118271
5.45696
-0.118619
4.18631
-0.120598
3.21292
-0.123303
2.4622
-0.125666
1.88125
-0.126749
1.43152
-0.125955
1.08482
-0.123374
0.819628
-0.119658
0.618319
-0.115698
0.466615
-0.112078
0.352566
0.266414
-0.108861
-0.450451
111.499
-0.366239
84.3607
-0.303429
63.7728
-0.255068
48.1981
-0.217668
36.4526
-0.188489
27.5942
-0.165833
20.9328
-0.148736
15.9213
-0.136453
12.1416
-0.128476
9.28627
-0.123671
7.10784
-0.1219
5.45519
-0.122283
4.18669
-0.124367
3.215
-0.127358
2.46519
-0.130216
1.8841
-0.131969
1.43326
-0.131822
1.08467
-0.129772
0.817574
-0.126673
0.615219
-0.123394
0.463335
-0.120091
0.349259
0.263017
-0.116697
-0.438128
111.396
-0.358555
84.2812
-0.299066
63.7133
-0.253109
48.1521
-0.217442
36.4169
-0.189492
27.5662
-0.167683
20.911
-0.151146
15.9047
-0.139219
12.1297
-0.131456
9.2785
-0.126749
7.10313
-0.125006
5.45344
-0.125397
4.18707
-0.127571
3.21717
-0.130882
2.46849
-0.13435
1.88757
-0.136997
1.43591
-0.137927
1.08559
-0.137098
0.816739
-0.135246
0.613368
-0.132657
0.460745
-0.129192
0.345792
0.259061
-0.12524
-0.426142
111.3
-0.351001
84.206
-0.294682
63.657
-0.25102
48.1084
-0.217007
36.3829
-0.190227
27.5395
-0.169221
20.89
-0.153209
15.8887
-0.141609
12.1181
-0.134033
9.27092
-0.129396
7.09849
-0.127654
5.45169
-0.128021
4.18743
-0.130262
3.2194
-0.13391
2.47213
-0.138084
1.89174
-0.141862
1.43968
-0.144374
1.0881
-0.145364
0.817726
-0.144832
0.612836
-0.142435
0.458346
-0.138627
0.341982
0.255014
-0.134585
-0.414492
111.209
-0.34359
84.1351
-0.290301
63.6037
-0.248833
48.067
-0.2164
36.3504
-0.190738
27.5138
-0.170494
20.8697
-0.154975
15.8732
-0.143675
12.1068
-0.136261
9.26351
-0.131669
7.09389
-0.129899
5.44992
-0.130209
4.18774
-0.132481
3.22167
-0.136457
2.4761
-0.141405
1.89668
-0.146536
1.44481
-0.151052
1.09261
-0.15416
0.820828
-0.154928
0.613603
-0.153267
0.456684
-0.150806
0.339519
0.252995
-0.148792
-0.403176
111.125
-0.336332
84.0682
-0.285943
63.5533
-0.246575
48.0276
-0.215654
36.3195
-0.19106
27.4892
-0.171541
20.8502
-0.156486
15.8582
-0.145461
12.0957
-0.138187
9.25623
-0.133617
7.08932
-0.131789
5.44808
-0.132004
4.18794
-0.134262
3.22392
-0.138525
2.48036
-0.144272
1.90242
-0.150907
1.45144
-0.157659
1.09935
-0.163148
0.826312
-0.166194
0.616651
-0.167855
0.458343
-0.17001
0.341671
0.255523
-0.172544
-0.392189
111.045
-0.329236
84.0053
-0.281625
63.5057
-0.24427
47.9902
-0.214798
36.29
-0.191226
27.4656
-0.172398
20.8314
-0.15778
15.8435
-0.147006
12.085
-0.139851
9.24907
-0.13528
7.08474
-0.133367
5.44616
-0.133444
4.18801
-0.13563
3.2261
-0.1401
2.48482
-0.146612
1.90893
-0.154784
1.4596
-0.163807
1.10837
-0.172207
0.834705
-0.179547
0.623992
-0.187512
0.466306
-0.196216
0.350374
0.262885
-0.203585
-0.381529
110.971
-0.32231
83.9461
-0.277363
63.4608
-0.241938
47.9548
-0.213857
36.262
-0.191265
27.4431
-0.173097
20.8132
-0.158891
15.8293
-0.148347
12.0744
-0.141291
9.24201
-0.136698
7.08015
-0.134672
5.44414
-0.134565
4.1879
-0.136609
3.22814
-0.141167
2.48937
-0.148321
1.91608
-0.157907
1.46919
-0.169117
1.11957
-0.18101
0.846593
-0.194108
0.637093
-0.20892
0.481115
-0.222579
0.364032
0.272445
-0.232144
-0.371192
110.903
-0.315558
83.8904
-0.273169
63.4184
-0.239599
47.9213
-0.212854
36.2352
-0.191203
27.4214
-0.173665
20.7957
-0.159849
15.8155
-0.149516
12.0641
-0.142541
9.23503
-0.137906
7.07551
-0.13574
5.44196
-0.135398
4.18755
-0.137219
3.22995
-0.14171
2.49386
-0.149273
1.92363
-0.15999
1.4799
-0.173212
1.13279
-0.188733
0.862109
-0.207119
0.655477
-0.226259
0.500254
-0.241022
0.378794
0.280693
-0.249277
-0.361172
110.839
-0.308987
83.8382
-0.269057
63.3784
-0.23727
47.8895
-0.21181
36.2098
-0.191064
27.4007
-0.17413
20.7787
-0.160682
15.8021
-0.150543
12.0539
-0.143632
9.22812
-0.138936
7.07081
-0.136604
5.43963
-0.135974
4.18692
-0.137483
3.23146
-0.141714
2.49808
-0.149356
1.93127
-0.160755
1.4913
-0.175555
1.14758
-0.193984
0.880534
-0.215522
0.677018
-0.235356
0.520086
-0.247855
0.391291
0.285458
-0.252626
-0.351466
110.779
-0.3026
83.7894
-0.265037
63.3409
-0.234967
47.8594
-0.210746
36.1855
-0.19087
27.3808
-0.174515
20.7624
-0.161418
15.789
-0.151454
12.044
-0.144593
9.22125
-0.13982
7.06603
-0.137296
5.4371
-0.136324
4.18594
-0.137423
3.23255
-0.141176
2.50183
-0.148488
1.93858
-0.159966
1.50277
-0.175563
1.16317
-0.195387
0.900354
-0.217311
0.69894
-0.234941
0.537714
-0.243656
0.400005
0.286512
-0.244715
-0.342069
110.725
-0.296403
83.7437
-0.261119
63.3056
-0.232705
47.831
-0.209678
36.1625
-0.190643
27.3618
-0.174844
20.7466
-0.162079
15.7762
-0.152277
12.0342
-0.145451
9.21442
-0.140585
7.06116
-0.137848
5.43436
-0.136479
4.18457
-0.137068
3.23313
-0.140112
2.50487
-0.146632
1.9451
-0.157438
1.51357
-0.172728
1.17846
-0.192119
0.919742
-0.21199
0.718814
-0.225849
0.551571
-0.230774
0.404929
0.284792
-0.229059
-0.332976
110.674
-0.290397
83.7011
-0.257313
63.2725
-0.230498
47.8042
-0.208625
36.1407
-0.190401
27.3435
-0.175138
20.7313
-0.16269
15.7638
-0.153036
12.0245
-0.146232
9.20762
-0.14126
7.05618
-0.13829
5.43138
-0.136471
4.18274
-0.136454
3.23311
-0.138551
2.50696
-0.143805
1.95034
-0.153119
1.52288
-0.166792
1.19213
-0.183882
0.936831
-0.199972
0.734903
-0.209586
0.561184
-0.21147
0.406812
0.281502
-0.208182
-0.324183
110.628
-0.284587
83.6615
-0.253629
63.2415
-0.228359
47.7789
-0.207603
36.1199
-0.190165
27.3261
-0.175419
20.7166
-0.163272
15.7516
-0.153755
12.015
-0.146962
9.20082
-0.141872
7.05109
-0.138651
5.42816
-0.136337
4.18043
-0.135621
3.23239
-0.136538
2.50788
-0.140077
1.95388
-0.147075
1.52988
-0.157852
1.2029
-0.171004
0.94998
-0.182209
0.746111
-0.18767
0.566644
-0.187425
0.406568
0.277781
-0.183706
-0.315686
110.586
-0.278976
83.6248
-0.250074
63.2126
-0.226301
47.7551
-0.206628
36.1002
-0.189952
27.3094
-0.175705
20.7023
-0.163848
15.7397
-0.154456
12.0056
-0.147664
9.19403
-0.142447
7.04587
-0.138961
5.42466
-0.136111
4.17757
-0.134616
3.23089
-0.134138
2.50739
-0.135571
1.95531
-0.139493
1.5338
-0.146258
1.20967
-0.154248
0.957971
-0.160008
0.751868
-0.16157
0.568206
-0.159891
0.404889
0.274484
-0.156595
-0.30748
110.547
-0.273567
83.5909
-0.246657
63.1857
-0.224337
47.7328
-0.205714
36.0816
-0.189779
27.2935
-0.176017
20.6886
-0.164437
15.7282
-0.155161
11.9963
-0.148362
9.18723
-0.143011
7.04052
-0.139248
5.4209
-0.135833
4.17416
-0.133494
3.22855
-0.131423
2.50532
-0.130451
1.95434
-0.13073
1.53408
-0.132653
1.21159
-0.134641
0.959959
-0.134783
0.752013
-0.132678
0.5661
-0.129852
0.402065
0.271986
-0.127354
-0.29956
110.513
-0.268362
83.5597
-0.243386
63.1608
-0.222476
47.7119
-0.204876
36.064
-0.189662
27.2783
-0.176371
20.6753
-0.165058
15.7169
-0.15589
11.9872
-0.149077
9.18041
-0.143587
7.03502
-0.139538
5.41685
-0.135542
4.17015
-0.132312
3.22531
-0.128496
2.5015
-0.124916
1.95076
-0.121208
1.53037
-0.117746
1.20813
-0.113246
0.955461
-0.107723
0.746487
-0.102099
0.560477
-0.0980101
0.397977
0.269889
-0.0959105
-0.291924
110.482
-0.263364
83.5311
-0.240269
63.1376
-0.220733
47.6924
-0.20413
36.0474
-0.189619
27.2638
-0.176787
20.6624
-0.165733
15.7058
-0.156665
11.9781
-0.149829
9.17357
-0.1442
7.02939
-0.139857
5.4125
-0.135281
4.16558
-0.131124
3.22116
-0.125489
2.49587
-0.119204
1.94448
-0.11131
1.52248
-0.102097
1.19892
-0.09117
0.944536
-0.0800007
0.73532
-0.0707775
0.551255
-0.0649874
0.392189
0.267398
-0.0624927
-0.284567
110.455
-0.258575
83.5051
-0.237311
63.1164
-0.219112
47.6742
-0.203481
36.0318
-0.189656
27.2499
-0.177274
20.6501
-0.166472
15.695
-0.157502
11.9691
-0.150643
9.16671
-0.144878
7.02362
-0.140235
5.40785
-0.135108
4.16044
-0.129992
3.21603
-0.122585
2.48846
-0.113643
1.93553
-0.101449
1.51028
-0.0862509
1.18372
-0.0690486
0.927334
-0.0521547
0.718423
-0.0386928
0.537793
-0.030061
0.383559
0.263301
-0.0259622
-0.267959
110.419
-0.238627
83.4758
-0.216785
63.0945
-0.199379
47.6568
-0.185117
36.0175
-0.172837
27.2377
-0.161945
20.6392
-0.152423
15.6855
-0.144488
11.9612
-0.13831
9.16053
-0.133059
7.01837
-0.128633
5.40343
-0.123581
4.15539
-0.118007
3.21046
-0.109943
2.4804
-0.0995314
1.92512
-0.0847108
1.49546
-0.0660225
1.16503
-0.0453504
0.906664
-0.025167
0.698242
-0.00882653
0.521452
0.00213128
0.372596
0.257478
0.00795989
-0.213247
110.391
-0.190171
83.4527
-0.173014
63.0774
-0.159341
47.6431
-0.148126
36.0063
-0.138438
27.228
-0.129794
20.6305
-0.122162
15.6778
-0.115782
11.9548
-0.110674
9.15542
-0.106357
7.01404
-0.102571
5.39963
-0.0982552
4.15107
-0.0930177
3.20522
-0.0859728
2.47335
-0.0761863
1.91533
-0.0624879
1.48176
-0.0456601
1.1482
-0.027075
0.888078
-0.00860074
0.679763
0.00711493
0.505736
0.0180181
0.361691
0.251149
0.0243434
-0.169674
110.368
-0.151505
83.4345
-0.138016
63.0639
-0.127269
47.6323
-0.118447
35.9975
-0.110805
27.2203
-0.103949
20.6237
-0.0978419
15.6717
-0.0927149
11.9497
-0.088511
9.15122
-0.0849799
7.01051
-0.0817811
5.39644
-0.0781828
4.14747
-0.0734345
3.20047
-0.0675928
2.46751
-0.0588371
1.90658
-0.0470638
1.46998
-0.0329681
1.13411
-0.0171863
0.872299
-0.00134125
0.663922
0.0126163
0.491774
0.0224435
0.351863
0.245179
0.0284118
-0.134961
110.351
-0.120628
83.4202
-0.110002
63.0533
-0.101541
47.6239
-0.0945929
35.9905
-0.0885617
27.2143
-0.0831258
20.6182
-0.0782437
15.6669
-0.074127
11.9456
-0.0706821
9.14777
-0.0678063
7.00763
-0.0651304
5.39375
-0.0621773
4.14451
-0.0580078
3.1963
-0.0532482
2.46274
-0.0456656
1.89899
-0.0359642
1.46028
-0.0245375
1.12268
-0.0115445
0.859305
0.00151918
0.650856
0.0133232
0.479973
0.0217443
0.343439
0.239913
0.0270094
-0.10732
110.337
-0.0959954
83.4089
-0.0876111
63.0449
-0.08094
47.6172
-0.0754621
35.9851
-0.0706997
27.2096
-0.0663899
20.6139
-0.0624912
15.663
-0.059188
11.9423
-0.0563755
9.14496
-0.0540402
7.0053
-0.0518204
5.39154
-0.049417
4.14211
-0.0458642
3.19275
-0.0419669
2.45885
-0.0355883
1.89261
-0.0277935
1.45248
-0.0186589
1.11355
-0.00818943
0.848838
0.00234103
0.64033
0.0119913
0.470321
0.0190115
0.336421
0.235421
0.0235025
-0.0852795
110.326
-0.0762901
83.3999
-0.0696419
63.0382
-0.0643588
47.6119
-0.0600239
35.9807
-0.0562539
27.2058
-0.0528332
20.6105
-0.0497211
15.6598
-0.0470718
11.9396
-0.0447834
9.14266
-0.0428916
7.0034
-0.0410647
5.3897
-0.0391184
4.14016
-0.0361709
3.1898
-0.0329486
2.45562
-0.0277512
1.88741
-0.0216053
1.44633
-0.0143716
1.10632
-0.00611078
0.840575
0.0022291
0.631989
0.00987922
0.462674
0.0156061
0.330692
0.231667
0.0193611
-0.0679341
110.317
-0.060927
83.3929
-0.0557533
63.033
-0.0516427
47.6078
-0.0482657
35.9774
-0.0453175
27.2028
-0.0426236
20.6078
-0.0401489
15.6574
-0.0380253
11.9375
-0.0361627
9.1408
-0.0346235
7.00186
-0.0331158
5.3882
-0.0315184
4.13857
-0.0290843
3.18737
-0.0263646
2.45291
-0.0221271
1.88318
-0.0172041
1.44141
-0.0113647
1.10048
-0.00476895
0.833982
0.00194251
0.625281
0.00804686
0.456568
0.0127428
0.325999
0.228523
0.0158861
-0.053806
110.31
-0.048114
83.3872
-0.0439126
63.0289
-0.0405841
47.6045
-0.0378598
35.9746
-0.0354928
27.2005
-0.0333374
20.6057
-0.0313577
15.6554
-0.0296551
11.9358
-0.0281495
9.13929
-0.0269099
7.00062
-0.0256911
5.38697
-0.0244063
4.13727
-0.0224828
3.18544
-0.0202535
2.45068
-0.0170018
1.87992
-0.0132242
1.43763
-0.00871156
1.09597
-0.0037115
0.82898
0.00141804
0.620151
0.00603916
0.45195
0.00971237
0.322325
0.225997
0.0122399
-0.0450004
110.3
-0.0365237
83.3787
-0.0300217
63.0223
-0.0248214
47.5993
-0.0205717
35.9704
-0.0169402
27.1968
-0.0136875
20.6024
-0.0106993
15.6524
-0.00801482
11.9331
-0.00557713
9.13686
-0.0034093
6.99845
-0.00131823
5.38489
0.000829555
4.13513
0.00365685
3.18261
0.00646199
2.44788
0.0103067
1.87608
0.0147275
1.43321
0.0197963
1.0909
0.0250894
0.82369
0.0300052
0.615239
0.0337488
0.448206
0.0361395
0.319936
0.225093
0.0370433
-0.047247
110.289
-0.0383534
83.3698
-0.031535
63.0155
-0.0260868
47.5938
-0.0216379
35.966
-0.0178366
27.193
-0.0144271
20.599
-0.0112852
15.6493
-0.00844804
11.9303
-0.00585968
9.13427
-0.00355604
6.99614
-0.00130883
5.38263
0.000960377
4.13285
0.00399214
3.17958
0.00698469
2.44488
0.0110349
1.87203
0.0156759
1.42856
0.0209602
1.08561
0.0264503
0.818199
0.031586
0.610103
0.0354552
0.44434
0.0379604
0.31743
0.224063
0.0389907
-0.0496051
110.277
-0.0402742
83.3605
-0.0331241
63.0084
-0.0274163
47.5881
-0.0227588
35.9613
-0.0187805
27.1891
-0.0152074
20.5954
-0.0119048
15.646
-0.00890776
11.9273
-0.00616088
9.13152
-0.00371488
6.9937
-0.00130295
5.38022
0.00109222
4.13046
0.00432475
3.17635
0.00754824
2.44166
0.0117883
1.86779
0.0166494
1.4237
0.0221366
1.08013
0.0278049
0.812534
0.0331178
0.604795
0.0370735
0.440383
0.0396429
0.314863
0.222932
0.0407746
-0.0520803
110.265
-0.0422906
83.3507
-0.0347925
63.0009
-0.0288129
47.5821
-0.0239373
35.9564
-0.0197739
27.1849
-0.0160301
20.5917
-0.0125596
15.6425
-0.00939539
11.9241
-0.00648188
9.1286
-0.00388681
6.9911
-0.00130235
5.37763
0.00122423
4.12793
0.00465356
3.17291
0.00814434
2.43816
0.0125608
1.86337
0.017639
1.41862
0.0233088
1.07446
0.0291211
0.806721
0.0345631
0.599353
0.0385609
0.436389
0.041137
0.312287
0.22173
0.0423398
-0.0546782
110.253
-0.0444075
83.3404
-0.0365446
62.993
-0.03028
47.5759
-0.0251763
35.9513
-0.0208196
27.1806
-0.0168976
20.5878
-0.0132518
15.6388
-0.00991258
11.9208
-0.0068239
9.12552
-0.00407259
6.98835
-0.00130827
5.37487
0.00135657
4.12527
0.00498008
3.16929
0.00876349
2.43439
0.013347
1.85879
0.0186368
1.41333
0.024467
1.06864
0.0303813
0.80081
0.0359039
0.593835
0.039904
0.432389
0.0424453
0.309748
0.220494
0.0436818
-0.0574054
110.239
-0.0466299
83.3297
-0.0383843
62.9848
-0.0318213
47.5693
-0.0264787
35.946
-0.0219202
27.176
-0.0178123
20.5837
-0.0139833
15.635
-0.010461
11.9173
-0.00718815
9.12224
-0.00427257
6.98543
-0.00132102
5.37192
0.00149128
4.12245
0.00530914
3.16547
0.00939837
2.43029
0.0141438
1.85404
0.0196355
1.40784
0.0256072
1.06266
0.031586
0.79483
0.0371309
0.588292
0.0411122
0.428411
0.0435994
0.30726
0.219265
0.0448285
-0.0602676
110.225
-0.048963
83.3183
-0.0403162
62.9761
-0.0334403
47.5624
-0.0278479
35.9404
-0.0230786
27.1712
-0.0187767
20.5794
-0.0147562
15.631
-0.0110423
11.9136
-0.00757554
9.11878
-0.00448662
6.98234
-0.00133969
5.36877
0.00163211
4.11949
0.00564817
3.16146
0.0100434
2.4259
0.0149518
1.84914
0.0206317
1.40216
0.0267262
1.05657
0.0327485
0.788811
0.0382555
0.58279
0.0422084
0.424458
0.0446374
0.304833
0.218059
0.0458443
-0.0632723
110.211
-0.0514124
83.3065
-0.0423445
62.9671
-0.0351411
47.5552
-0.0292873
35.9346
-0.0242976
27.1662
-0.0197933
20.5749
-0.0155726
15.6268
-0.0116578
11.9097
-0.00798683
9.1151
-0.00471432
6.97906
-0.00136259
5.36542
0.0017839
4.11633
0.00600571
3.15723
0.0106978
2.42121
0.0157763
1.84406
0.0216265
1.39631
0.027818
1.05038
0.0338737
0.782755
0.0393049
0.57736
0.0432207
0.420546
0.0455991
0.302455
0.216858
0.046801
-0.0664259
110.196
-0.0539838
83.294
-0.0444745
62.9575
-0.0369277
47.5477
-0.0308002
35.9284
-0.0255804
27.161
-0.0208646
20.5701
-0.0164347
15.6223
-0.0123093
11.9055
-0.00842282
9.11122
-0.00495517
6.9756
-0.00138771
5.36185
0.00195157
4.113
0.00638968
3.1528
0.0113663
2.41623
0.0166255
1.8388
0.0226224
1.39031
0.0288833
1.04412
0.0349577
0.776683
0.0403038
0.572019
0.0441719
0.416678
0.0465204
0.300109
0.215643
0.0477361
-0.0697361
110.18
-0.0566832
83.281
-0.0467108
62.9476
-0.0388043
47.5398
-0.0323904
35.922
-0.02693
27.1556
-0.0219936
20.5652
-0.0173447
15.6177
-0.0129984
11.9012
-0.00888442
9.1071
-0.00520905
6.97192
-0.00141333
5.35805
0.00213924
4.10944
0.00680617
3.14813
0.0120497
2.41099
0.0175016
1.83335
0.0236197
1.38419
0.0299346
1.03781
0.0360017
0.770615
0.0412634
0.566759
0.0450759
0.412869
0.0474077
0.297777
0.214411
0.0486405
-0.0732106
110.163
-0.059517
83.2673
-0.0490592
62.9371
-0.0407755
47.5315
-0.0340618
35.9153
-0.0283499
27.1499
-0.023183
20.56
-0.0183051
15.6128
-0.0137271
11.8966
-0.00937293
9.10275
-0.00547617
6.96802
-0.00143828
5.35402
0.00234955
4.10566
0.00725707
3.14323
0.0127424
2.40551
0.0184016
1.82769
0.0246178
1.37798
0.0309856
1.03144
0.0370147
0.764588
0.0421853
0.561593
0.0459336
0.409122
0.0482428
0.29547
0.213172
0.0494828
-0.0768579
110.145
-0.0624921
83.2529
-0.0515247
62.9261
-0.0428459
47.5228
-0.0358184
35.9083
-0.0298436
27.1439
-0.0244359
20.5546
-0.0193184
15.6077
-0.0144973
11.8918
-0.00988978
9.09814
-0.00575726
6.96388
-0.00146204
5.34972
0.00258329
4.10161
0.00773954
3.13807
0.0134415
2.3998
0.0193272
1.82181
0.0256171
1.37169
0.0320391
1.02502
0.0380027
0.758624
0.0430611
0.556537
0.0467334
0.405453
0.0490018
0.293202
0.211942
0.0502327
-0.080686
110.126
-0.0656154
83.2379
-0.0541137
62.9146
-0.0450206
47.5137
-0.0376644
35.9009
-0.0314148
27.1376
-0.0257555
20.549
-0.0203874
15.6023
-0.0153115
11.8867
-0.0104367
9.09327
-0.00605344
6.95951
-0.00148499
5.34515
0.00283913
4.09729
0.00824911
3.13266
0.0141501
2.39391
0.0202808
1.81568
0.0266175
1.36536
0.0330858
1.01856
0.0389625
0.752749
0.04388
0.551623
0.0474559
0.401878
0.0496602
0.291
0.210745
0.0508583
-0.0847042
110.107
-0.068894
83.2221
-0.0568318
62.9026
-0.0473047
47.5042
-0.0396044
35.8932
-0.0330674
27.1311
-0.0271453
20.5431
-0.0215149
15.5967
-0.0161719
11.8814
-0.0110157
9.08811
-0.00636618
6.95485
-0.00150816
5.34029
0.00311368
4.09266
0.00878093
3.12699
0.0148693
2.38782
0.0212536
1.80929
0.0276181
1.35899
0.0341117
1.01206
0.0398819
0.746979
0.0446305