/*--------------------------------*- C++ -*----------------------------------*\
  =========                 |
  \\      /  F ield         | OpenFOAM: The Open Source CFD Toolbox
   \\    /   O peration     | Website:  https://openfoam.org
    \\  /    A nd           | Version:  7
     \\/     M anipulation  |
\*---------------------------------------------------------------------------*/
FoamFile
{
    version     2.0;
    format      ascii;
    class       volVectorField;
    location    "50";
    object      U;
}
// * * * * * * * * * * * * * * * * * * * * * * * * * * * * * * * * * * * * * //

dimensions      [0 1 -1 0 0 0 0];

internalField   nonuniform List<vector> 
12842
(
(15.2767 3.24784 -3.72751e-18)
(15.2763 3.24577 4.09353e-19)
(15.2754 3.24526 1.35752e-19)
(15.2737 3.24606 -3.61711e-19)
(15.2708 3.24922 1.66552e-18)
(15.2667 3.25678 0)
(15.2609 3.27116 0)
(15.2519 3.29494 2.32298e-19)
(15.2378 3.33081 -1.91357e-18)
(15.2163 3.38131 -3.1597e-20)
(15.185 3.44879 -6.98098e-19)
(15.1416 3.53517 3.78855e-20)
(15.0842 3.64181 -3.58538e-19)
(15.0114 3.76906 -2.75922e-20)
(14.923 3.91607 4.3383e-20)
(14.8197 4.08032 8.50922e-20)
(14.7034 4.25742 3.84808e-20)
(14.5776 4.44135 0)
(14.4465 4.62512 2.45817e-21)
(14.3153 4.80173 1.0175e-20)
(14.1889 4.96495 6.87756e-21)
(14.0717 5.11115 -1.6618e-20)
(13.9668 5.23511 1.98439e-20)
(15.275 3.24857 2.75595e-18)
(15.2743 3.24634 0)
(15.2736 3.24641 1.25712e-18)
(15.2727 3.24719 -9.71469e-19)
(15.2721 3.25012 -1.35207e-18)
(15.2725 3.25763 0)
(15.2732 3.27257 2.92416e-18)
(15.2729 3.298 0)
(15.2696 3.33699 3.14658e-18)
(15.2604 3.39234 2.86742e-19)
(15.2427 3.46644 1.31945e-18)
(15.2135 3.56111 1.59208e-18)
(15.1707 3.67742 3.47385e-19)
(15.1126 3.81536 -6.42465e-19)
(15.0384 3.97359 0)
(14.9484 4.14906 -9.88825e-20)
(14.8442 4.33681 -6.95088e-20)
(14.7285 4.53026 1.69488e-19)
(14.6052 4.72189 0)
(14.4791 4.9044 -1.99621e-20)
(14.3554 5.0713 2.39521e-20)
(14.2387 5.21963 2.72347e-20)
(14.1334 5.34192 -1.38492e-20)
(15.2728 3.24944 0)
(15.2722 3.24741 0)
(15.2717 3.24768 1.34521e-19)
(15.2712 3.24776 5.35474e-18)
(15.2726 3.2496 0)
(15.2769 3.25596 0)
(15.2837 3.27021 6.20481e-19)
(15.2918 3.29595 -3.08022e-18)
(15.2987 3.33671 -1.42201e-18)
(15.3014 3.3956 -1.29851e-18)
(15.2966 3.47502 -2.24361e-18)
(15.281 3.57671 -1.56651e-18)
(15.2521 3.70143 -2.86589e-19)
(15.2079 3.84879 1.0033e-18)
(15.1475 4.01705 0)
(15.0708 4.20275 1.2604e-19)
(14.9791 4.40045 -1.61462e-19)
(14.8744 4.6031 -1.25105e-19)
(14.7604 4.8027 -2.75288e-19)
(14.6416 4.99166 1.60216e-19)
(14.523 5.16314 -2.63967e-20)
(14.4095 5.31493 0)
(14.3065 5.43702 -1.58095e-21)
(15.2704 3.25079 6.37735e-19)
(15.2704 3.24909 3.71897e-19)
(15.2697 3.24929 -1.88907e-18)
(15.2692 3.24826 -8.41493e-18)
(15.2721 3.24841 8.55271e-19)
(15.28 3.25281 -3.67752e-18)
(15.2925 3.26537 -2.43797e-19)
(15.3085 3.29027 3.05411e-18)
(15.3253 3.33158 5.15616e-18)
(15.3395 3.39272 -3.01931e-18)
(15.3471 3.47616 5.42916e-18)
(15.3446 3.58351 -5.4196e-19)
(15.329 3.71528 7.0584e-19)
(15.2984 3.87069 2.01418e-18)
(15.2516 4.04764 -2.84645e-19)
(15.1886 4.24234 3.66595e-19)
(15.1102 4.44902 1.10798e-19)
(15.0179 4.66026 3.27266e-19)
(14.9148 4.86767 1.43699e-20)
(14.805 5.06341 2.02113e-19)
(14.6937 5.24024 5.80223e-20)
(14.5854 5.39668 8.3658e-20)
(14.4869 5.52013 -1.14299e-19)
(15.2679 3.25278 5.89328e-18)
(15.269 3.25135 0)
(15.2676 3.25133 3.42711e-19)
(15.2666 3.24896 2.89716e-18)
(15.2708 3.24701 2.13192e-19)
(15.2817 3.24878 1.00543e-17)
(15.2995 3.25876 5.31779e-19)
(15.323 3.28176 -8.07882e-18)
(15.3495 3.32243 -5.85367e-18)
(15.3747 3.38462 3.87918e-18)
(15.3944 3.47085 -5.75045e-18)
(15.4046 3.58267 -3.83147e-18)
(15.4021 3.72022 8.12482e-19)
(15.3849 3.88237 -4.29627e-18)
(15.352 4.06666 -1.51006e-18)
(15.3032 4.26901 9.90425e-19)
(15.2389 4.48346 0)
(15.1602 4.7024 -3.2725e-19)
(15.0694 4.91718 0)
(14.9703 5.1198 9.67209e-20)
(14.8681 5.30257 1.24707e-19)
(14.7669 5.46471 -1.06961e-19)
(14.6745 5.59091 -2.67011e-20)
(15.2656 3.25542 -4.58843e-18)
(15.2678 3.25409 0)
(15.2654 3.25381 0)
(15.2635 3.25001 4.6181e-18)
(15.2688 3.2457 -4.25389e-18)
(15.2823 3.24432 -5.83733e-18)
(15.3049 3.25097 -1.02419e-17)
(15.3356 3.27108 8.94157e-18)
(15.3712 3.30996 0)
(15.4072 3.372 4.9096e-18)
(15.4384 3.45973 5.14603e-18)
(15.4609 3.57473 1.91361e-18)
(15.4711 3.71677 0)
(15.4673 3.88429 2.27694e-18)
(15.4485 4.07444 1.28744e-18)
(15.4144 4.28295 -7.16318e-19)
(15.3652 4.5038 -1.81806e-19)
(15.3012 4.72939 1.27102e-18)
(15.2243 4.95095 0)
(15.1376 5.16048 -5.46205e-19)
(15.0462 5.34968 1.8563e-19)
(14.9537 5.51845 5.94007e-19)
(14.8693 5.64858 -1.26941e-19)
(15.2637 3.25855 4.05717e-19)
(15.2669 3.25714 0)
(15.2631 3.25668 0)
(15.2601 3.25147 -4.60196e-18)
(15.2657 3.2447 5.02976e-18)
(15.2809 3.23979 -8.52055e-19)
(15.3075 3.24243 6.06511e-18)
(15.3444 3.25863 6.56206e-19)
(15.3885 3.29454 -8.60968e-19)
(15.4348 3.35515 -5.54671e-18)
(15.4776 3.44313 -5.45284e-19)
(15.5125 3.56012 3.73836e-18)
(15.5357 3.70542 0)
(15.5453 3.87702 -2.76584e-18)
(15.5406 4.07164 2.29594e-19)
(15.5213 4.28483 -2.96356e-19)
(15.4874 4.51064 8.87472e-19)
(15.439 4.74174 -7.4153e-19)
(15.3772 4.96936 -9.9071e-19)
(15.3044 5.18559 -2.40686e-19)
(15.2258 5.38145 3.2308e-20)
(15.1439 5.55746 -3.61119e-19)
(15.069 5.69233 -2.30329e-19)
(15.2622 3.26213 0)
(15.2662 3.26053 -1.91522e-19)
(15.2609 3.25982 2.38651e-18)
(15.2569 3.25313 -1.70639e-19)
(15.2632 3.24383 -5.40128e-18)
(15.2801 3.23516 1.04643e-18)
(15.3106 3.2334 -1.79795e-19)
(15.3535 3.24517 -5.513e-18)
(15.4054 3.27732 0)
(15.4608 3.33556 -6.69903e-18)
(15.5133 3.42248 5.3032e-19)
(15.5592 3.53992 1.89229e-19)
(15.5942 3.68673 0)
(15.617 3.8605 2.7229e-18)
(15.6268 4.05753 -2.02501e-18)
(15.6234 4.27335 0)
(15.6062 4.50225 -8.78342e-19)
(15.5749 4.7374 0)
(15.5298 4.9702 8.1235e-19)
(15.4729 5.19296 0)
(15.4088 5.39577 -3.76379e-19)
(15.3395 5.58003 2.30309e-19)
(15.2755 5.72063 3.11828e-19)
(15.261 3.26592 0)
(15.2656 3.26372 0)
(15.2581 3.26342 -5.47363e-20)
(15.2519 3.25609 -2.23828e-19)
(15.2568 3.24513 5.97123e-18)
(15.273 3.23341 6.16468e-18)
(15.3051 3.22742 0)
(15.3523 3.23414 5.17501e-18)
(15.4116 3.26132 0)
(15.4768 3.3157 1.36437e-17)
(15.5403 3.40038 4.65765e-18)
(15.5975 3.51764 -3.10058e-18)
(15.6431 3.66598 -2.83404e-19)
(15.6759 3.84239 0)
(15.6953 4.04241 2.14078e-18)
(15.7022 4.26104 1.5994e-18)
(15.697 4.49252 -1.44206e-19)
(15.6793 4.73036 1.08607e-18)
(15.6491 4.96623 9.761e-19)
(15.6074 5.19297 0)
(15.558 5.39987 2.39246e-19)
(15.5015 5.5899 1.83801e-20)
(15.4485 5.73472 -1.80864e-19)
(15.2599 3.27041 9.63092e-20)
(15.2654 3.26707 2.63743e-18)
(15.2559 3.26672 -2.19718e-18)
(15.2483 3.25834 0)
(15.2528 3.24558 1.25808e-19)
(15.269 3.23119 2.83358e-19)
(15.303 3.22185 -6.63279e-18)
(15.3538 3.22495 0)
(15.4183 3.24873 0)
(15.4902 3.30062 -6.87484e-18)
(15.5609 3.38374 -4.96515e-18)
(15.6259 3.50065 -1.13305e-19)
(15.6795 3.64955 2.76443e-18)
(15.7204 3.82705 -9.4727e-20)
(15.7484 4.02823 -2.94513e-19)
(15.765 4.24781 2.93687e-19)
(15.7706 4.48005 -1.05837e-18)
(15.765 4.71889 -1.00301e-18)
(15.748 4.95615 -1.10992e-18)
(15.7197 5.1853 -8.1236e-19)
(15.6836 5.39479 2.64383e-19)
(15.639 5.58905 -1.1777e-18)
(15.5972 5.7371 2.12579e-19)
(15.2591 3.27516 -3.92956e-18)
(15.2653 3.27041 -2.85825e-18)
(15.2538 3.27005 6.46577e-20)
(15.2451 3.26058 2.58787e-18)
(15.2491 3.24593 -1.5403e-19)
(15.2653 3.22883 -6.41197e-18)
(15.3009 3.2161 1.27538e-17)
(15.3549 3.21559 3.6926e-19)
(15.4244 3.23609 -2.73362e-19)
(15.5025 3.28568 -7.45284e-18)
(15.58 3.36738 1.70956e-19)
(15.6527 3.48398 -3.95644e-18)
(15.714 3.63328 -2.469e-18)
(15.763 3.81144 0)
(15.7998 4.01308 2.42907e-18)
(15.8262 4.23267 -3.39733e-18)
(15.8432 4.46456 -2.35619e-19)
(15.8505 4.70321 1.01469e-18)
(15.8476 4.94064 -1.11429e-20)
(15.8341 5.17102 1.02596e-18)
(15.8129 5.38197 0)
(15.7819 5.57943 3.57251e-19)
(15.7534 5.72988 0)
(15.2588 3.28001 5.46777e-18)
(15.2652 3.27366 -3.13263e-18)
(15.2517 3.2734 1.10957e-19)
(15.2421 3.26287 -5.02305e-18)
(15.2456 3.24641 3.2592e-18)
(15.2616 3.22667 -1.76217e-19)
(15.2988 3.21055 -6.57698e-18)
(15.3557 3.20643 1.08354e-19)
(15.4298 3.22361 -3.12898e-19)
(15.5138 3.27087 7.70312e-18)
(15.5979 3.35108 0)
(15.678 3.46725 3.62298e-18)
(15.7469 3.61673 2.45144e-19)
(15.804 3.79523 -1.10918e-19)
(15.8496 3.99678 -2.5212e-18)
(15.8859 4.2156 3.85745e-20)
(15.9144 4.44609 9.61293e-19)
(15.9352 4.68329 -1.66999e-18)
(15.9474 4.91946 0)
(15.9498 5.14963 -7.11825e-19)
(15.9451 5.36056 9.45956e-19)
(15.9295 5.55981 0)
(15.9157 5.71151 -5.46367e-19)
(15.2589 3.28486 -1.67685e-18)
(15.2652 3.27677 -1.0943e-19)
(15.2498 3.27673 1.08101e-19)
(15.2393 3.26523 2.42613e-18)
(15.2422 3.24704 -6.37583e-18)
(15.258 3.22477 1.9842e-20)
(15.2965 3.20529 9.27029e-20)
(15.3562 3.19756 6.4447e-18)
(15.4345 3.21133 -1.47285e-19)
(15.5243 3.25615 0)
(15.6146 3.33468 5.63473e-18)
(15.702 3.45021 1.19947e-19)
(15.7783 3.59962 8.83656e-20)
(15.8435 3.77813 9.27598e-21)
(15.8978 3.97914 -2.5218e-19)
(15.9441 4.1965 1.88844e-18)
(15.9845 4.4246 -1.07925e-18)
(16.0193 4.65908 -1.5717e-19)
(16.0474 4.89242 -3.58379e-19)
(16.067 5.12069 9.74801e-19)
(16.0802 5.32978 -6.7447e-19)
(16.0814 5.5291 1.38451e-18)
(16.0837 5.68058 -9.01546e-19)
(15.2592 3.28964 -1.51352e-18)
(15.2651 3.27971 3.16228e-18)
(15.2481 3.28002 6.50503e-21)
(15.2367 3.26761 2.52207e-18)
(15.2388 3.24779 6.45218e-18)
(15.2544 3.22307 -1.97038e-20)
(15.294 3.20028 -9.50893e-20)
(15.3563 3.18892 1.61117e-19)
(15.4386 3.19919 -5.36316e-18)
(15.5339 3.24146 4.17959e-18)
(15.6302 3.31811 -5.92742e-18)
(15.7247 3.43276 -4.00397e-18)
(15.8085 3.58184 2.8548e-18)
(15.8817 3.76 0)
(15.9447 3.96001 1.42751e-18)
(16.0011 4.17519 0)
(16.0536 4.39985 1.44548e-18)
(16.1029 4.63023 9.01183e-19)
(16.1476 4.85897 -1.71529e-20)
(16.1853 5.0834 -1.09036e-18)
(16.2174 5.2885 -2.42196e-20)
(16.2368 5.48574 5.23032e-21)
(16.2564 5.63512 -3.65932e-19)
(15.2597 3.29434 6.98175e-20)
(15.265 3.28249 2.11945e-20)
(15.2464 3.28327 -5.58396e-21)
(15.2343 3.27003 -2.5283e-18)
(15.2356 3.24869 -3.21074e-18)
(15.2508 3.22163 0)
(15.2913 3.19554 6.95332e-20)
(15.356 3.18051 -6.62526e-18)
(15.4421 3.18715 -1.1584e-19)
(15.5426 3.2267 -4.19359e-18)
(15.6447 3.30124 3.11147e-18)
(15.7464 3.41476 6.26407e-18)
(15.8375 3.56323 -2.77044e-18)
(15.9189 3.74073 1.94635e-18)
(15.9906 3.93929 1.42369e-19)
(16.0572 4.15158 1.47811e-20)
(16.122 4.37166 -8.13203e-20)
(16.1859 4.59637 -2.83862e-19)
(16.2478 4.81851 1.94238e-19)
(16.3041 5.03681 -3.32121e-19)
(16.356 5.23534 -2.44704e-20)
(16.3945 5.42791 2.86765e-19)
(16.4325 5.5728 0)
(15.2603 3.29887 9.20167e-20)
(15.2648 3.28509 0)
(15.245 3.28644 0)
(15.232 3.27244 -2.48768e-18)
(15.2324 3.24969 -3.26462e-18)
(15.2472 3.22037 3.65175e-18)
(15.2885 3.191 4.94105e-20)
(15.3552 3.17227 -6.06889e-20)
(15.4449 3.17517 5.58916e-18)
(15.5506 3.21185 -7.05231e-20)
(15.6584 3.28404 1.55208e-19)
(15.7673 3.39617 -2.1295e-18)
(15.8658 3.54375 0)
(15.9553 3.72026 -2.07901e-18)
(16.0359 3.91692 -3.0197e-18)
(16.1126 4.12554 -1.18996e-18)
(16.1896 4.33981 -7.24473e-19)
(16.2683 4.55712 0)
(16.3474 4.77039 0)
(16.4226 4.97994 6.0291e-19)
(16.4946 5.16894 4.3292e-19)
(16.5525 5.35379 -8.90442e-19)
(16.6093 5.4914 0)
(15.261 3.30329 1.1169e-18)
(15.2646 3.28756 9.54339e-21)
(15.2437 3.28954 -1.79194e-21)
(15.2299 3.27484 2.47795e-18)
(15.2293 3.25078 6.46833e-18)
(15.2436 3.21928 -7.29425e-18)
(15.2855 3.18664 -5.01438e-20)
(15.3542 3.16416 -6.19053e-20)
(15.4472 3.16318 8.12481e-20)
(15.5579 3.19681 0)
(15.6712 3.2664 -3.10047e-18)
(15.7874 3.37685 2.23453e-18)
(15.8934 3.52327 0)
(15.9913 3.69846 0)
(16.0807 3.89278 1.43504e-18)
(16.1675 4.09694 1.06609e-19)
(16.2565 4.30408 8.28212e-19)
(16.3497 4.51209 6.31044e-19)
(16.4457 4.71393 -9.27345e-19)
(16.5395 4.91175 -3.48267e-19)
(16.6312 5.08767 1.41263e-18)
(16.7082 5.26129 -1.34421e-18)
(16.7836 5.38783 9.12305e-19)
(15.2618 3.30753 -4.80582e-19)
(15.2642 3.28996 1.36212e-18)
(15.2426 3.29255 1.06869e-20)
(15.2279 3.27728 -1.41588e-20)
(15.2263 3.252 -3.25037e-18)
(15.24 3.21837 3.70994e-18)
(15.2822 3.18247 -3.67849e-20)
(15.3527 3.15616 -1.46313e-20)
(15.4488 3.15112 8.27252e-20)
(15.5645 3.18151 3.67993e-20)
(15.6833 3.2482 -4.81442e-20)
(15.8069 3.35668 -2.23998e-18)
(15.9206 3.50165 1.64623e-18)
(16.027 3.67519 -6.75823e-20)
(16.1253 3.86672 0)
(16.2218 4.06559 -1.03789e-19)
(16.3222 4.26415 1.03617e-19)
(16.4291 4.46074 -6.38026e-19)
(16.5412 4.64843 1.16752e-18)
(16.6526 4.83151 6.98182e-19)
(16.7628 4.99113 -4.77449e-19)
(16.8574 5.14985 -7.26939e-19)
(16.9503 5.26342 9.43608e-19)
(15.2626 3.31148 3.41517e-20)
(15.2638 3.29228 -1.36652e-18)
(15.2417 3.29547 0)
(15.226 3.27971 0)
(15.2233 3.25333 0)
(15.2363 3.21763 0)
(15.2788 3.17845 3.72953e-20)
(15.3508 3.14823 -1.70872e-20)
(15.45 3.13894 -4.20616e-20)
(15.5705 3.16588 3.75222e-20)
(15.6947 3.22936 -4.90978e-20)
(15.8259 3.33554 0)
(15.9473 3.47875 -3.22871e-18)
(16.0624 3.6503 7.51207e-20)
(16.1695 3.83859 -1.52908e-19)
(16.2754 4.03138 1.33405e-18)
(16.3864 4.22007 -1.04874e-19)
(16.5059 4.40334 1.75903e-19)
(16.6326 4.57449 -2.17121e-19)
(16.7596 4.73958 3.53698e-19)
(16.8862 4.88017 -5.04845e-19)
(16.9963 5.01931 0)
(17.1043 5.11818 4.95916e-19)
(15.2634 3.31515 8.73687e-19)
(15.2634 3.29451 -6.02758e-19)
(15.2408 3.29829 -5.55506e-21)
(15.2241 3.28216 1.21955e-18)
(15.2204 3.25477 1.60976e-18)
(15.2326 3.21708 1.96177e-20)
(15.275 3.17462 -3.94939e-18)
(15.3484 3.14038 3.67684e-18)
(15.4503 3.12663 2.96303e-18)
(15.5758 3.14986 0)
(15.7053 3.20977 5.44759e-20)
(15.8443 3.31326 -2.4487e-18)
(15.9737 3.45433 1.67913e-18)
(16.0977 3.62351 1.09001e-18)
(16.2135 3.80818 8.26138e-19)
(16.3279 3.99418 0)
(16.4483 4.17168 0)
(16.5785 4.33946 -6.59017e-19)
(16.7174 4.49144 -7.35588e-19)
(16.8577 4.63512 3.58505e-19)
(16.9973 4.75387 2.63951e-19)
(17.1201 4.86905 3.49465e-19)
(17.2397 4.9509 -4.88598e-19)
(15.2642 3.31854 -4.25025e-19)
(15.263 3.29667 6.05914e-19)
(15.2401 3.30102 -5.22979e-21)
(15.2224 3.28456 1.9956e-21)
(15.2176 3.2562 -1.61091e-18)
(15.229 3.21653 -1.87716e-18)
(15.2713 3.17074 1.91579e-18)
(15.3461 3.1324 -3.64438e-18)
(15.4506 3.11399 -2.952e-18)
(15.5808 3.1333 -6.87442e-20)
(15.7155 3.1893 0)
(15.8623 3.2897 2.37149e-18)
(15.9996 3.42826 1.67423e-18)
(16.1326 3.59468 -1.15385e-18)
(16.2567 3.77538 -7.10795e-19)
(16.3788 3.95392 -3.03793e-19)
(16.5069 4.11903 -2.31045e-19)
(16.6453 4.26931 1.30294e-18)
(16.7935 4.39965 0)
(16.9435 4.51878 0)
(17.0921 4.61315 2.61206e-19)
(17.2235 4.70138 -6.67804e-19)
(17.3503 4.76405 -4.77886e-19)
(15.2648 3.32166 4.1883e-19)
(15.2626 3.2988 0)
(15.2394 3.30374 0)
(15.2206 3.28722 -2.42945e-18)
(15.2145 3.25814 1.59228e-18)
(15.2246 3.21669 1.92261e-18)
(15.2664 3.16764 -1.97394e-20)
(15.342 3.12498 1.84143e-18)
(15.4489 3.10145 7.06064e-20)
(15.584 3.11626 -2.45312e-18)
(15.7242 3.16775 5.62036e-20)
(15.8794 3.26453 -7.32756e-20)
(16.0253 3.40016 -1.66846e-18)
(16.1676 3.56352 1.17357e-18)
(16.2999 3.74011 7.69606e-19)
(16.4284 3.91082 -6.00335e-19)
(16.5617 4.06261 5.38915e-19)
(16.7051 4.1937 -6.44459e-19)
(16.8584 4.30025 0)
(17.0136 4.39229 0)
(17.1661 4.46037 -2.40952e-19)
(17.3016 4.52039 1.66139e-19)
(17.4307 4.5626 -4.63662e-19)
(15.2655 3.32454 8.52499e-21)
(15.2622 3.30053 -5.40896e-19)
(15.2393 3.30591 0)
(15.2196 3.2887 6.06406e-19)
(15.213 3.25832 -3.22997e-18)
(15.223 3.21459 2.01671e-20)
(15.2652 3.16212 -5.50184e-20)
(15.3424 3.11565 -1.90856e-18)
(15.4514 3.08772 4.45184e-20)
(15.5907 3.09892 2.45537e-18)
(15.7345 3.1461 -5.23408e-20)
(15.8968 3.23885 -1.20376e-18)
(16.0501 3.37103 -1.06834e-19)
(16.2008 3.53061 -1.09583e-18)
(16.3405 3.70253 -8.7284e-19)
(16.4742 3.86496 7.43308e-20)
(16.6105 4.0028 0)
(16.7557 4.11371 -8.52267e-20)
(16.9099 4.19531 1.09528e-19)
(17.0655 4.25904 0)
(17.2169 4.30017 2.32684e-19)
(17.3521 4.33223 -1.61945e-19)
(17.4782 4.35307 0)
(15.2662 3.3273 -4.28443e-19)
(15.2619 3.30339 5.40143e-19)
(15.2382 3.30978 0)
(15.2171 3.29411 6.05279e-19)
(15.2087 3.26455 3.23855e-18)
(15.2165 3.22044 1.94795e-18)
(15.2571 3.16511 4.06965e-18)
(15.3345 3.11296 0)
(15.4461 3.07795 3.17713e-18)
(15.5905 3.08201 -2.49065e-18)
(15.7409 3.12262 1.75821e-18)
(15.9124 3.21062 1.24183e-18)
(16.0752 3.33898 -1.37431e-20)
(16.2361 3.49553 1.78533e-20)
(16.3835 3.6644 -8.07916e-19)
(16.5205 3.82015 5.74411e-19)
(16.6556 3.94459 0)
(16.7967 4.03408 2.98807e-19)
(16.9452 4.08816 0)
(17.0947 4.12007 0)
(17.2395 4.13077 -2.26117e-19)
(17.3695 4.13349 -4.68111e-19)
(17.4873 4.13183 3.95553e-19)
(15.2663 3.32923 0)
(15.2614 3.30493 -1.61631e-23)
(15.2379 3.3117 6.34163e-23)
(15.2162 3.29652 -6.21169e-19)
(15.2072 3.26712 -7.97996e-19)
(15.2144 3.22257 -1.94769e-18)
(15.2547 3.16557 -2.05066e-18)
(15.3325 3.11033 -2.18292e-21)
(15.4453 3.07091 -1.55652e-18)
(15.5926 3.07011 -4.78548e-20)
(15.7468 3.10526 3.1987e-20)
(15.9249 3.18814 0)
(16.0954 3.31171 1.38304e-20)
(16.2652 3.4637 -1.79426e-20)
(16.4203 3.62813 1.1784e-18)
(16.5607 3.77681 3.39237e-20)
(16.693 3.88853 0)
(16.8264 3.95791 6.7279e-20)
(16.9637 3.98579 -1.00618e-19)
(17.1 3.98637 0)
(17.2318 3.9666 0)
(17.3514 3.94261 2.89818e-19)
(17.4578 3.92077 -1.99389e-19)
(15.2667 3.33113 -5.40282e-19)
(15.2611 3.30637 5.3124e-19)
(15.2375 3.31348 0)
(15.2153 3.29868 6.21877e-19)
(15.2057 3.26934 -8.30919e-19)
(15.2123 3.22425 -2.04605e-18)
(15.2522 3.16556 2.15034e-18)
(15.3303 3.10734 -2.01822e-18)
(15.4444 3.0637 -1.62182e-18)
(15.5948 3.05827 3.83972e-18)
(15.7528 3.08801 -1.79186e-18)
(15.9376 3.16558 -1.28911e-18)
(16.116 3.28409 -8.84756e-19)
(16.295 3.43127 0)
(16.4575 3.59161 -3.98991e-19)
(16.5997 3.73462 5.41759e-19)
(16.7259 3.83605 2.56594e-20)
(16.846 3.88846 -3.15789e-19)
(16.9649 3.89354 0)
(17.0806 3.86594 0)
(17.1942 3.81909 0)
(17.3007 3.77325 -4.13458e-19)
(17.394 3.73402 3.63612e-19)
(15.2671 3.33296 5.41029e-19)
(15.2608 3.30778 1.33779e-20)
(15.2372 3.3152 0)
(15.2145 3.30078 -6.67037e-19)
(15.2043 3.27151 -8.38312e-23)
(15.2102 3.22587 3.10375e-18)
(15.2497 3.16548 -4.36306e-18)
(15.328 3.1043 6.16078e-18)
(15.4435 3.05642 -1.82633e-21)
(15.5967 3.04635 -1.29468e-18)
(15.7586 3.07054 -9.33785e-19)
(15.9503 3.14254 1.29113e-18)
(16.1366 3.25567 8.73379e-19)
(16.3249 3.39792 -5.92347e-19)
(16.4946 3.55476 6.33248e-21)
(16.638 3.69411 -5.4724e-19)
(16.7555 3.78877 0)
(16.8573 3.82868 0)
(16.9513 3.8158 1.75194e-19)
(17.0411 3.76503 0)
(17.1323 3.69512 0)
(17.2199 3.62855 6.48837e-20)
(17.293 3.56931 1.60748e-19)
(15.2674 3.33471 0)
(15.2605 3.30914 -5.46028e-19)
(15.237 3.31689 1.48892e-23)
(15.2137 3.30286 -2.99947e-20)
(15.203 3.27369 -8.06883e-23)
(15.2082 3.22753 -2.14434e-18)
(15.2472 3.16546 2.21265e-18)
(15.3257 3.10131 -4.14392e-18)
(15.4423 3.04915 -1.72738e-18)
(15.5985 3.03434 0)
(15.7641 3.05277 9.29401e-19)
(15.9624 3.1189 2.56365e-21)
(16.1566 3.22629 6.03161e-23)
(16.3543 3.36345 5.88672e-19)
(16.5315 3.51751 0)
(16.6758 3.65558 2.58357e-19)
(16.7831 3.74794 -5.30216e-21)
(16.8628 3.78139 0)
(16.9269 3.75709 -1.74114e-19)
(16.985 3.68866 0)
(17.0453 3.59708 0)
(17.1022 3.50723 0)
(17.1463 3.42608 -9.28883e-21)
(15.2678 3.33639 0)
(15.2603 3.31048 2.97684e-19)
(15.2368 3.31854 -3.12333e-24)
(15.213 3.30495 6.98582e-19)
(15.2017 3.27589 9.51977e-19)
(15.2062 3.22925 2.20932e-18)
(15.2447 3.16553 0)
(15.3233 3.0984 -2.15949e-18)
(15.441 3.04191 3.48428e-18)
(15.5998 3.02226 -1.84452e-23)
(15.769 3.0347 9.55215e-19)
(15.9739 3.09463 -6.68961e-19)
(16.1759 3.1959 0)
(16.3831 3.32776 0)
(16.5682 3.47972 3.8454e-19)
(16.7139 3.61914 -2.53155e-19)
(16.8108 3.71455 0)
(16.8657 3.74912 -1.95864e-19)
(16.895 3.72079 -1.31224e-19)
(16.9126 3.63957 0)
(16.9294 3.52856 2.26035e-21)
(16.9474 3.42069 2.81268e-22)
(16.9634 3.32828 -7.28224e-20)
(15.2683 3.338 1.12403e-24)
(15.26 3.31178 -6.10545e-19)
(15.2366 3.32016 -6.86699e-24)
(15.2123 3.30702 0)
(15.2004 3.27813 3.10326e-20)
(15.2042 3.23104 -2.27006e-18)
(15.2421 3.1657 -4.86153e-22)
(15.3207 3.0956 2.16091e-18)
(15.4393 3.03471 -1.75627e-18)
(15.6007 3.01011 1.38799e-18)
(15.7734 3.01634 9.07022e-21)
(15.9845 3.06975 1.34423e-18)
(16.1943 3.16445 -9.14703e-19)
(16.4114 3.29072 2.3084e-21)
(16.6053 3.4412 -7.66308e-19)
(16.7536 3.58465 2.42336e-19)
(16.8411 3.68913 -9.20036e-21)
(16.8702 3.73326 2.01502e-19)
(16.8592 3.70913 1.29466e-19)
(16.8271 3.62368 0)
(16.7962 3.50785 4.39485e-20)
(16.781 3.40242 0)
(16.7733 3.31467 -1.5003e-20)
(15.2687 3.33953 0)
(15.2598 3.31304 3.12859e-19)
(15.2364 3.32175 2.64308e-19)
(15.2116 3.30909 3.63475e-23)
(15.1992 3.28039 -1.99871e-18)
(15.2022 3.23291 1.15044e-18)
(15.2394 3.16597 0)
(15.3179 3.0929 0)
(15.4374 3.02756 -9.72991e-22)
(15.6012 2.99791 -1.38753e-18)
(15.7771 2.9977 8.19708e-21)
(15.9945 3.04423 -6.74297e-19)
(16.2119 3.1319 9.10413e-19)
(16.4391 3.25217 0)
(16.643 3.40161 3.78916e-19)
(16.7961 3.55166 -2.33984e-19)
(16.8768 3.67134 1.19999e-19)
(16.8807 3.73407 1.00514e-20)
(16.8265 3.72547 0)
(16.7452 3.65469 0)
(16.6765 3.56091 -2.53154e-20)
(16.6325 3.47508 -3.82355e-20)
(16.5858 3.39054 4.03919e-20)
(15.2692 3.34099 0)
(15.2596 3.31427 -1.15765e-23)
(15.2363 3.32331 -2.64573e-19)
(15.211 3.31116 4.0985e-19)
(15.1979 3.28268 1.01443e-18)
(15.2002 3.23484 2.3807e-22)
(15.2367 3.16635 1.22786e-18)
(15.315 3.0903 1.12933e-18)
(15.4351 3.02047 -1.81937e-18)
(15.6013 2.98567 0)
(15.7802 2.97878 8.24914e-21)
(16.0036 3.01809 -6.86235e-19)
(16.2286 3.0982 0)
(16.4665 3.21193 -9.20582e-21)
(16.6819 3.36049 3.85579e-19)
(16.8427 3.51927 0)
(16.9208 3.65984 -2.52059e-20)
(16.9033 3.75119 3.98753e-21)
(16.8109 3.77512 5.92238e-20)
(16.6917 3.7444 0)
(16.5896 3.68963 0)
(16.4924 3.61369 1.54796e-20)
(16.3705 3.51171 -2.19882e-20)
(15.2696 3.34238 -2.88402e-24)
(15.2595 3.31547 3.80922e-24)
(15.2362 3.32484 0)
(15.2104 3.31322 4.35889e-19)
(15.1967 3.285 -5.74404e-22)
(15.1982 3.23685 4.86248e-22)
(15.2339 3.16683 -1.22825e-18)
(15.3119 3.08783 -1.13132e-18)
(15.4326 3.01344 1.82085e-18)
(15.6009 2.97339 -1.43241e-18)
(15.7827 2.95961 -9.85179e-19)
(16.012 2.99134 6.91716e-19)
(16.2445 3.06331 4.61932e-19)
(16.4933 3.16976 2.94599e-19)
(16.7222 3.31722 -3.71843e-19)
(16.8945 3.48608 1.3994e-20)
(16.9764 3.65241 -1.25694e-19)
(16.9465 3.78374 -2.57242e-20)
(16.8287 3.85994 -3.62708e-20)
(16.6788 3.88615 -4.59948e-21)
(16.5193 3.86491 5.75676e-21)
(16.3263 3.78265 0)
(16.1091 3.66291 -1.44392e-20)
(15.2701 3.34369 0)
(15.2593 3.31663 3.67121e-19)
(15.236 3.32633 3.03205e-19)
(15.2098 3.31527 -4.11211e-19)
(15.1955 3.28735 5.46097e-19)
(15.1962 3.23893 0)
(15.231 3.16743 1.50676e-21)
(15.3087 3.08547 -1.97917e-21)
(15.4299 3.00648 9.28878e-19)
(15.6002 2.96109 2.16256e-18)
(15.7846 2.94019 -9.9678e-19)
(16.0196 2.96398 -5.26805e-21)
(16.2594 3.02719 6.21822e-21)
(16.5196 3.12543 -3.03465e-19)
(16.7639 3.27102 0)
(16.9523 3.45028 2.05415e-19)
(17.0464 3.64599 -9.46617e-20)
(17.0186 3.82829 3.94663e-20)
(16.8896 3.97234 -2.15302e-20)
(16.7 4.0604 -1.26652e-20)
(16.4503 4.07448 2.71077e-20)
(16.16 4.01971 -3.70412e-20)
(15.8897 3.94507 -4.44395e-20)
(15.2705 3.34493 -1.38629e-19)
(15.2591 3.31775 1.15491e-20)
(15.2359 3.32779 -3.03519e-19)
(15.2092 3.31732 -4.3568e-19)
(15.1944 3.28973 -1.10489e-18)
(15.1942 3.24108 -1.26506e-18)
(15.2281 3.16814 -1.52661e-21)
(15.3053 3.08324 2.00523e-21)
(15.4269 2.99961 -9.2963e-19)
(15.5992 2.94879 -7.2681e-19)
(15.786 2.92054 2.01371e-18)
(16.0263 2.93603 -7.09515e-19)
(16.2732 2.98982 -4.74927e-19)
(16.5452 3.07866 3.11364e-19)
(16.807 3.22102 -1.07014e-20)
(17.0166 3.4097 -1.80411e-19)
(17.1334 3.6364 8.79252e-20)
(17.1247 3.87729 -2.56278e-20)
(16.9962 4.09789 7.01812e-21)
(16.7623 4.25922 0)
(16.4427 4.35882 -6.64372e-20)
(16.139 4.43259 6.12242e-20)
(15.9052 4.50019 -1.25928e-19)
(15.271 3.34609 1.3874e-19)
(15.259 3.31884 -5.74471e-19)
(15.2358 3.32922 -3.2643e-19)
(15.2087 3.31936 4.60061e-19)
(15.1932 3.29214 5.58612e-19)
(15.1922 3.24331 1.26579e-18)
(15.2252 3.16897 1.30254e-18)
(15.3018 3.08114 0)
(15.4237 2.99283 9.50154e-19)
(15.5977 2.93649 -7.45825e-19)
(15.7867 2.90069 -1.0129e-18)
(16.0322 2.90752 7.09624e-19)
(16.2859 2.95118 0)
(16.5697 3.02922 -2.92142e-19)
(16.851 3.1663 1.67217e-19)
(17.0873 3.36191 -1.02386e-19)
(17.2384 3.61824 1.21859e-20)
(17.2663 3.91924 1.92274e-21)
(17.155 4.22049 7.48512e-20)
(16.9114 4.48464 -5.80349e-20)
(16.6223 4.7539 0)
(16.4221 5.04687 2.56754e-19)
(16.2642 5.29452 -3.50112e-19)
(15.2714 3.34718 0)
(15.2588 3.31989 1.95312e-19)
(15.2358 3.33061 3.26575e-19)
(15.2082 3.32139 -4.60568e-19)
(15.1921 3.29457 -1.69952e-22)
(15.1902 3.24561 5.23385e-22)
(15.2222 3.16991 -6.42444e-19)
(15.2982 3.07917 0)
(15.4202 2.98615 -9.50915e-19)
(15.5959 2.92421 -1.00391e-20)
(15.7868 2.88066 0)
(16.0371 2.87849 -3.64065e-19)
(16.2971 2.91128 0)
(16.5928 2.97689 1.93182e-20)
(16.8951 3.10592 -3.89413e-19)
(17.1636 3.30426 7.41103e-20)
(17.3607 3.58501 1.12851e-20)
(17.4429 3.94021 -2.49942e-20)
(17.38 4.32286 -2.75991e-20)
(17.2031 4.72031 -1.20768e-19)
(17.0602 5.20244 1.88608e-19)
(17.0073 5.70361 -2.54821e-19)
(16.8593 6.06479 8.62055e-19)
(15.2719 3.3482 1.28862e-19)
(15.2587 3.32091 2.05994e-19)
(15.2357 3.33197 -1.7461e-19)
(15.2077 3.32342 -2.66387e-22)
(15.191 3.29703 6.3484e-22)
(15.1882 3.24798 -1.37415e-21)
(15.2192 3.17098 -6.61085e-19)
(15.2945 3.07735 4.75522e-21)
(15.4166 2.97957 -3.49067e-21)
(15.5937 2.91197 -1.02828e-20)
(15.7863 2.86048 -5.25413e-19)
(16.041 2.84897 3.52334e-19)
(16.3068 2.87013 1.52684e-20)
(16.6142 2.92154 -1.97457e-20)
(16.9385 3.03907 2.20377e-19)
(17.2439 3.23407 0)
(17.4975 3.52965 4.70098e-20)
(17.6524 3.92623 1.06887e-20)
(17.6823 4.38534 5.45768e-20)
(17.6566 4.92173 -1.88312e-19)
(17.7119 5.57424 1.02162e-19)
(17.7363 6.17583 -3.36239e-20)
(17.4683 6.53829 -5.11581e-19)
(15.2723 3.34915 -2.54452e-19)
(15.2585 3.32188 -2.0616e-19)
(15.2357 3.3333 -5.72673e-21)
(15.2072 3.32543 0)
(15.19 3.29952 0)
(15.1862 3.25043 -6.75198e-19)
(15.2162 3.17216 -6.79034e-19)
(15.2907 3.07567 0)
(15.4127 2.97311 -4.29012e-21)
(15.5911 2.89979 7.73308e-19)
(15.7851 2.84017 5.34401e-19)
(16.0438 2.81902 -1.12056e-20)
(16.3148 2.82779 -1.60328e-20)
(16.6333 2.86308 4.08269e-20)
(16.9798 2.96508 -2.58552e-20)
(17.3254 3.14885 0)
(17.6441 3.44595 -8.51461e-20)
(17.8899 3.86472 -2.4707e-20)
(18.0554 4.38191 6.61133e-20)
(18.2334 5.02385 -5.42316e-20)
(18.4572 5.75369 -1.87094e-19)
(18.4259 6.33556 2.81393e-19)
(17.9076 6.61766 0)
(15.2728 3.35003 2.47824e-19)
(15.2584 3.32283 1.11013e-23)
(15.2357 3.33459 1.8067e-19)
(15.2068 3.32744 0)
(15.189 3.30203 0)
(15.1843 3.25296 -9.30811e-21)
(15.2131 3.17347 1.36693e-18)
(15.2868 3.07414 0)
(15.4085 2.96678 4.98158e-19)
(15.5881 2.88768 0)
(15.7832 2.81977 0)
(16.0454 2.78869 -1.21838e-20)
(16.3208 2.78434 1.57094e-20)
(16.6498 2.80155 1.50425e-19)
(17.0177 2.88353 2.65838e-20)
(17.4047 3.04677 -2.59949e-20)
(17.7939 3.32904 8.60938e-20)
(18.1452 3.74537 0)
(18.4745 4.28775 -1.41234e-20)
(18.8591 4.97169 0)
(19.167 5.68216 -1.84789e-20)
(18.9566 6.1721 -4.50629e-20)
(18.1043 6.35311 0)
(15.2732 3.35084 -1.81887e-19)
(15.2583 3.32373 -1.1083e-19)
(15.2357 3.33585 0)
(15.2064 3.32943 2.60793e-19)
(15.188 3.30457 -3.1457e-19)
(15.1824 3.25555 6.86302e-19)
(15.2101 3.1749 -6.89029e-19)
(15.2827 3.07277 -6.37533e-19)
(15.4041 2.96059 -4.94924e-19)
(15.5847 2.87566 -6.38112e-21)
(15.7805 2.79931 8.28982e-21)
(16.0459 2.75807 3.82188e-19)
(16.3247 2.73987 1.66667e-20)
(16.6631 2.73711 -2.142e-19)
(17.0505 2.79445 2.74075e-20)
(17.4777 2.92695 0)
(17.9384 3.17583 0)
(18.4024 3.5604 0)
(18.9012 4.08373 0)
(19.4579 4.74056 -4.3157e-21)
(19.759 5.36206 7.96725e-20)
(19.295 5.73742 -5.66394e-20)
(18.0884 5.83855 0)
(15.2736 3.35158 5.9601e-20)
(15.2582 3.3246 2.24302e-19)
(15.2357 3.33708 0)
(15.206 3.33142 -2.61129e-19)
(15.187 3.30713 6.35831e-19)
(15.1805 3.25823 0)
(15.2069 3.17647 0)
(15.2786 3.07156 6.35244e-19)
(15.3995 2.95454 0)
(15.5808 2.86374 -3.98421e-19)
(15.7772 2.77882 -2.83307e-19)
(16.0451 2.72721 -1.89287e-19)
(16.3262 2.69453 2.67613e-19)
(16.6726 2.67003 0)
(17.0766 2.69826 0)
(17.5399 2.78955 3.40296e-20)
(18.0681 2.98546 -4.26615e-20)
(18.6417 3.30702 0)
(19.2942 3.76174 -3.0397e-20)
(19.967 4.32759 4.33767e-21)
(20.1973 4.82244 4.37709e-20)
(19.4649 5.09364 -4.03633e-20)
(17.9352 5.14945 0)
(15.274 3.35225 9.43581e-24)
(15.2581 3.32544 -2.29476e-19)
(15.2357 3.33828 -7.86452e-23)
(15.2056 3.33339 -1.36491e-19)
(15.1861 3.30971 -3.21265e-19)
(15.1785 3.26097 3.57967e-19)
(15.2038 3.17816 1.19069e-21)
(15.2743 3.07051 -3.28383e-19)
(15.3946 2.94865 5.22905e-19)
(15.5765 2.85194 3.99296e-19)
(15.773 2.75834 2.75117e-19)
(16.043 2.69623 -1.93239e-19)
(16.3252 2.64848 -2.67837e-19)
(16.6779 2.60076 -2.29519e-20)
(17.0944 2.59578 2.92825e-20)
(17.5872 2.63592 3.89491e-20)
(18.1729 2.75971 -4.88484e-20)
(18.8421 2.98718 0)
(19.6175 3.32855 3.05958e-20)
(20.348 3.75288 0)
(20.4727 4.10164 -1.15522e-20)
(19.505 4.28973 0)
(17.7164 4.3342 -1.01418e-20)
(15.2744 3.35285 -2.77543e-20)
(15.2581 3.32624 1.16017e-19)
(15.2357 3.33945 1.05464e-19)
(15.2053 3.33535 -2.71885e-21)
(15.1852 3.31232 -5.2365e-22)
(15.1767 3.26379 6.03323e-21)
(15.2006 3.17997 -3.62538e-19)
(15.2699 3.06963 -6.07626e-21)
(15.3895 2.94291 -5.15075e-19)
(15.5719 2.84028 -6.59924e-21)
(15.7682 2.7379 2.88824e-19)
(16.0396 2.6652 0)
(16.3216 2.60194 -1.76931e-20)
(16.6786 2.52982 2.27074e-20)
(17.1023 2.48825 6.25022e-20)
(17.616 2.46864 0)
(18.2445 2.50333 0)
(18.9851 2.60839 -4.48025e-20)
(19.84 2.79915 0)
(20.5799 3.05024 1.90803e-19)
(20.5948 3.24487 -2.00521e-19)
(19.4523 3.36326 2.75747e-20)
(17.4888 3.42175 4.70586e-19)
(15.2748 3.35338 5.49285e-20)
(15.258 3.327 -6.05997e-20)
(15.2358 3.34058 -1.59745e-19)
(15.205 3.33731 1.40445e-19)
(15.1843 3.31496 1.68989e-19)
(15.1748 3.26669 -5.49167e-19)
(15.1974 3.18193 3.63279e-19)
(15.2654 3.06893 3.26937e-19)
(15.3842 2.93735 8.40275e-21)
(15.5667 2.82878 -6.00894e-21)
(15.7625 2.71755 -2.80467e-19)
(16.0349 2.63424 -9.92725e-20)
(16.3152 2.5551 1.20959e-19)
(16.6743 2.45786 1.19735e-19)
(17.0991 2.37722 -6.26675e-20)
(17.6232 2.29105 0)
(18.2746 2.22321 0)
(19.0554 2.18509 -1.22032e-19)
(19.9393 2.19945 1.41967e-19)
(20.6484 2.2563 0)