/*--------------------------------*- C++ -*----------------------------------*\
  =========                 |
  \\      /  F ield         | OpenFOAM: The Open Source CFD Toolbox
   \\    /   O peration     | Website:  https://openfoam.org
    \\  /    A nd           | Version:  7
     \\/     M anipulation  |
\*---------------------------------------------------------------------------*/
FoamFile
{
    version     2.0;
    format      ascii;
    class       volScalarField;
    location    "50";
    object      yPlus;
}
// * * * * * * * * * * * * * * * * * * * * * * * * * * * * * * * * * * * * * //

dimensions      [0 0 0 0 0 0 0];

internalField   uniform 0;

boundaryField
{
    inlet
    {
        type            calculated;
        value           uniform 0;
    }
    outlet
    {
        type            calculated;
        value           uniform 0;
    }
    suction_side
    {
        type            calculated;
        value           nonuniform List<scalar> 
56
(
7.87023
8.38446
8.37514
9.00256
8.98085
10.1781
10.1546
12.0231
12.3908
15.3757
18.0179
25.5188
34.3091
32.9573
22.5264
20.7874
29.5795
37.8823
45.989
47.4575
46.1685
43.647
39.0932
33.3447
27.4998
23.7421
23.1122
23.6129
23.9295
23.7477
23.533
22.766
22.284
22.0901
22.7581
24.207
27.5418
33.3751
35.0612
37.2729
25.365
17.3907
19.8667
24.3805
27.0633
28.9695
30.5082
31.2482
30.3811
27.858
24.1591
20.1333
18.8013
19.5648
21.4898
22.3499
)
;
    }
    pressure_side
    {
        type            calculated;
        value           nonuniform List<scalar> 
56
(
43.8473
42.6139
41.5794
41.3181
40.7031
40.1685
39.4988
38.9109
38.4677
38.2386
38.0659
37.9529
37.8469
37.8032
37.7786
37.7611
37.7462
37.7385
37.7393
37.7555
37.7721
37.7759
37.702
37.57
37.358
37.1423
36.9911
37.0459
37.32
37.8581
38.5767
39.3447
39.9571
39.921
39.037
37.7422
35.8439
33.1989
29.4943
25.1683
20.2246
15.0544
9.9886
6.84548
5.67005
5.19611
5.392
5.79662
6.08003
6.4808
7.20402
7.19122
7.81092
7.75825
7.85368
7.86521
)
;
    }
    trailing_edge
    {
        type            calculated;
        value           nonuniform List<scalar> 2(142.859 103.68);
    }
    defaultFaces
    {
        type            empty;
    }
}


// ************************************************************************* //
