/*--------------------------------*- C++ -*----------------------------------*\
  =========                 |
  \\      /  F ield         | OpenFOAM: The Open Source CFD Toolbox
   \\    /   O peration     | Website:  https://openfoam.org
    \\  /    A nd           | Version:  7
     \\/     M anipulation  |
\*---------------------------------------------------------------------------*/
FoamFile
{
    version     2.0;
    format      ascii;
    class       volScalarField;
    location    "50";
    object      k;
}
// * * * * * * * * * * * * * * * * * * * * * * * * * * * * * * * * * * * * * //

dimensions      [0 2 -2 0 0 0 0];

internalField   nonuniform List<scalar> 
12842
(
0.00569974
0.00512572
0.00474087
0.00450268
0.00433272
0.00421617
0.00412135
0.00405824
0.00400624
0.00397136
0.00394521
0.00392631
0.00391795
0.00392247
0.00393283
0.00394685
0.00396337
0.00397878
0.00399767
0.00401761
0.00403208
0.00404381
0.00405294
0.00567166
0.00509694
0.00472496
0.00447373
0.00430131
0.00419696
0.00411274
0.004055
0.00400552
0.00397154
0.0039464
0.00392654
0.00392074
0.00392608
0.00393656
0.00395063
0.00396409
0.00398207
0.00400005
0.00401799
0.00403466
0.00404551
0.00405441
0.0056536
0.00503809
0.00467423
0.00443315
0.00426371
0.00415873
0.00407661
0.00402996
0.00398972
0.0039626
0.0039404
0.00392278
0.0039196
0.0039262
0.00393834
0.00395461
0.00396883
0.00398561
0.0040034
0.00402259
0.00403634
0.00404713
0.00405436
0.00561251
0.00500025
0.00464914
0.00441582
0.0042513
0.0041483
0.00406621
0.00401763
0.00397878
0.00395571
0.00393552
0.00391973
0.00391888
0.00392672
0.0039399
0.00395786
0.00397111
0.003992
0.00400732
0.00402446
0.00404001
0.0040507
0.00405589
0.00557243
0.00492408
0.00456893
0.0043594
0.00421439
0.00412109
0.00404552
0.00399891
0.00396273
0.00394201
0.00392512
0.00391406
0.00391659
0.00392697
0.00394279
0.00396025
0.00397789
0.00399482
0.00401224
0.00402882
0.00404184
0.00405143
0.00405483
0.00553575
0.00489177
0.00453914
0.0043327
0.00419638
0.00410812
0.0040374
0.00398993
0.00395676
0.00393715
0.00391995
0.00391114
0.00391528
0.0039284
0.00394502
0.00396256
0.00398007
0.00400104
0.00401844
0.00403132
0.00404525
0.00405179
0.00405397
0.00548671
0.0048244
0.00447783
0.0042773
0.00415607
0.00407947
0.00402033
0.00397607
0.00394534
0.00392747
0.00391424
0.0039084
0.00391435
0.00393019
0.00395052
0.00396558
0.00398544
0.00400352
0.00402333
0.00403335
0.00404882
0.00405159
0.00405605
0.00545375
0.00479468
0.00445415
0.00425747
0.00413963
0.00406377
0.00401054
0.00397011
0.00394099
0.00392305
0.00390976
0.00390676
0.00391361
0.00393087
0.0039537
0.00396811
0.00398737
0.00400557
0.00403421
0.00403761
0.00404588
0.00405275
0.00405416
0.00539663
0.00473539
0.00440542
0.00421901
0.004108
0.00403616
0.00399346
0.00395815
0.00393262
0.00391553
0.00390621
0.00390566
0.00391317
0.00393538
0.00395645
0.00397191
0.00399173
0.004011
0.0040336
0.00403631
0.00404745
0.00405371
0.00406718
0.00537329
0.00470106
0.00438414
0.00420373
0.00409546
0.00402214
0.00398323
0.00395228
0.00392871
0.00391082
0.00390381
0.00390472
0.00391299
0.00393484
0.00396033
0.0039763
0.00399276
0.00401149
0.00402906
0.00403893
0.00404939
0.00406512
0.00411313
0.00530504
0.00465231
0.00434169
0.00417242
0.00407079
0.00400255
0.00396738
0.00393998
0.00392021
0.00390365
0.00390082
0.00390289
0.00391221
0.00393827
0.00396552
0.00398067
0.00399551
0.0040121
0.0040324
0.004042
0.00406451
0.00411501
0.00420232
0.00528014
0.00461052
0.00432044
0.00415812
0.00405908
0.00399162
0.0039583
0.0039337
0.0039156
0.00389964
0.00389801
0.00390017
0.00390976
0.00393812
0.00396582
0.00398441
0.00399702
0.00401109
0.004032
0.00406192
0.00411677
0.0041965
0.00431598
0.0052149
0.00457436
0.00428807
0.0041304
0.00403778
0.00397644
0.00394473
0.00392257
0.00390706
0.00389426
0.0038942
0.00389564
0.00390526
0.00393892
0.00396499
0.00398542
0.00399468
0.00401214
0.00404598
0.00411221
0.00418704
0.00431158
0.00445611
0.00519067
0.00453399
0.00426483
0.00411508
0.00402599
0.00396781
0.00393727
0.00391729
0.00390304
0.00389185
0.00388993
0.00388995
0.00390082
0.0039383
0.00397059
0.00398418
0.00399674
0.00402802
0.00409034
0.00419074
0.00429139
0.00444058
0.0046126
0.00513006
0.00450482
0.0042412
0.00409309
0.00400671
0.00395614
0.00392676
0.00390812
0.00389589
0.0038874
0.0038842
0.00388275
0.00389185
0.0039391
0.00397091
0.00398938
0.00400763
0.00406883
0.00415872
0.00429324
0.00441776
0.00460201
0.00478654
0.00510842
0.00447278
0.00421365
0.00407525
0.00399459
0.0039501
0.00392183
0.00390378
0.00389239
0.0038848
0.0038778
0.00387553
0.00389162
0.00394023
0.00396755
0.00399154
0.00404478
0.00413669
0.004256
0.00442204
0.00456454
0.00476402
0.00496703
0.00505394
0.0044465
0.00419624
0.00406005
0.00397895
0.00394166
0.00391405
0.00389547
0.00388545
0.00387917
0.00387065
0.00386959
0.00389023
0.00394116
0.00397002
0.00401461
0.00410751
0.0042279
0.00437585
0.00456894
0.0047339
0.00495151
0.00515691
0.0050363
0.00442246
0.00416883
0.00404084
0.00396752
0.0039378
0.00391022
0.00389075
0.00388149
0.00387484
0.00386413
0.00386527
0.00388769
0.00394146
0.00398053
0.0040678
0.00419582
0.0043448
0.00451804
0.00473339
0.00490912
0.00513288
0.00534236
0.00498848
0.0043991
0.00415472
0.00402994
0.00395778
0.00393144
0.00390277
0.00388063
0.00387259
0.00386678
0.00385925
0.0038634
0.00388851
0.00394232
0.00402135
0.00414739
0.00430671
0.00447978
0.0046761
0.0049084
0.00509917
0.0053285
0.00553358
0.00497562
0.0043794
0.00413242
0.00401254
0.00394688
0.00392805
0.00389802
0.00387322
0.00386722
0.00386349
0.00385741
0.00386366
0.00389155
0.00396632
0.00408911
0.00425216
0.00443735
0.00463312
0.00484656
0.00509118
0.0052863
0.00551041
0.00571067
0.00493325
0.00435956
0.00411991
0.00400198
0.00394165
0.00392134
0.00388868
0.00385974
0.00385748
0.00385748
0.00385532
0.00386302
0.00390593
0.00401529
0.00418393
0.00437703
0.00458371
0.00479711
0.00502351
0.00527482
0.0054771
0.00570021
0.0058869
0.00492647
0.00434352
0.00410241
0.00398776
0.00393225
0.00391612
0.00387896
0.00385159
0.00385364
0.00385789
0.00386064
0.00388468
0.00395641
0.00409692
0.00430096
0.00451964
0.00474219
0.00496924
0.00520436
0.00545798
0.00566158
0.00586996
0.00605111
0.00488328
0.00432656
0.0040919
0.0039766
0.00392613
0.00390731
0.0038694
0.00384206
0.00384654
0.00385563
0.00386974
0.00391542
0.00401915
0.00419406
0.00443492
0.0046738
0.00490733
0.00514474
0.00538211
0.00563187
0.00584154
0.00604515
0.00620582
0.00487721
0.00431854
0.00407973
0.00396722
0.00391805
0.00389449
0.003858
0.0038348
0.00384596
0.00386337
0.0039085
0.00398752
0.00412316
0.00432279
0.00458999
0.00484179
0.0050807
0.00532102
0.00555868
0.00580341
0.00600858
0.00619897
0.00635717
0.00486449
0.00430841
0.00407044
0.00395757
0.0039088
0.00388523
0.00385167
0.0038309
0.0038476
0.00389531
0.00397648
0.00407581
0.00424078
0.00446189
0.00475248
0.00501314
0.0052531
0.00549739
0.00573066
0.00596728
0.00617465
0.00636251
0.00650317
0.00485398
0.00430257
0.00405777
0.00395124
0.00389711
0.00387758
0.00384669
0.00383199
0.00386626
0.00395597
0.004065
0.00418454
0.0043741
0.00461033
0.00491962
0.00518544
0.00542574
0.00566679
0.005895
0.00612432
0.00632019
0.00649183
0.00662788
0.00484095
0.00429334
0.00404323
0.00393876
0.00388511
0.00387009
0.00384676
0.00384594
0.00391311
0.00404391
0.00417411
0.00430877
0.00451936
0.00476703
0.00509079
0.0053562
0.00558897
0.0058263
0.00604381
0.00626055
0.00645229
0.00661912
0.00674099
0.004833
0.00428299
0.00402539
0.00392948
0.00387401
0.00386437
0.00385712
0.00388985
0.00398982
0.0041488
0.00429715
0.0044444
0.00466851
0.00492291
0.00525721
0.0055186
0.00574505
0.00597273
0.00617987
0.00638747
0.00656505
0.00671671
0.00683338
0.00482183
0.00427078
0.00400593
0.00391671
0.00386542
0.00386312
0.00388922
0.00395413
0.00408617
0.00427056
0.00443074
0.0045854
0.00481902
0.00507729
0.00541932
0.00567239
0.00588504
0.00610274
0.00629699
0.00649141
0.00666063
0.00680795
0.00691554
0.00481621
0.00425283
0.0039858
0.00391045
0.00385917
0.00387033
0.003946
0.0040445
0.00420267
0.00439946
0.00456916
0.00472744
0.00496371
0.00522349
0.00556952
0.00581163
0.00601344
0.00621899
0.00640141
0.00658629
0.00674515
0.00688084
0.00698296
0.00480741
0.00423213
0.00396813
0.00390169
0.00385976
0.00389946
0.00402166
0.00414655
0.00432812
0.00453556
0.00470876
0.00486652
0.00510224
0.00536185
0.00570974
0.00593817
0.00612376
0.00631584
0.0064866
0.00666168
0.00681055
0.0069443
0.00704363
0.00480279
0.00420825
0.00395346
0.00390016
0.00387124
0.00395839
0.00411728
0.00426632
0.0044634
0.00467023
0.00484532
0.00499931
0.00523006
0.00548789
0.00583505
0.00604838
0.00622103
0.00640252
0.00656303
0.0067284
0.0068736
0.00700022
0.00708988
0.00479508
0.00418483
0.0039436
0.00390379
0.0039119
0.00403958
0.00422512
0.00438842
0.0045974
0.00480501
0.00497683
0.00512471
0.00534825
0.00560417
0.00594743
0.00614465
0.00630266
0.00646984
0.00662193
0.0067835
0.00691922
0.00704423
0.00713798
0.00478892
0.0041626
0.00394081
0.00392873
0.00397355
0.00414277
0.00434579
0.0045215
0.00473305
0.00493172
0.00509966
0.00523956
0.00545429
0.00570614
0.00604616
0.00622649
0.00637126
0.00653138
0.00667633
0.00682872
0.00696658
0.00708775
0.00716836
0.00477981
0.00414397
0.00394627
0.00396814
0.00405915
0.00425548
0.00446752
0.00464601
0.00485981
0.00505282
0.0052131
0.00534579
0.00555035
0.0057996
0.00613056
0.00629501
0.00642918
0.00657579
0.00671533
0.00686883
0.00699882
0.00712033
0.00720478
0.00476972
0.00413062
0.00396702
0.0040316
0.00416182
0.00437775
0.00459488
0.00477555
0.00498014
0.0051623
0.00531517
0.0054393
0.00563403
0.00587776
0.00620509
0.00635279
0.00647472
0.00661782
0.0067549
0.00690134
0.00703741
0.00715345
0.00722822
0.0047557
0.0041206
0.00400395
0.0041043
0.00426916
0.00449657
0.00471379
0.0048902
0.00508894
0.00526181
0.00540548
0.00552466
0.00570948
0.00595054
0.0062656
0.00639912
0.00651463
0.00664673
0.00677982
0.0069321
0.00706305
0.00718154
0.00725502
0.00474154
0.00412359
0.00405671
0.00419292
0.0043897
0.00461486
0.00482969
0.00500106
0.00518691
0.00534826
0.00548437
0.00559701
0.00577295
0.00600786
0.00631907
0.00643806
0.00654351
0.00667357
0.00680956
0.00695652
0.00709391
0.00721008
0.00727351
0.00472292
0.00413523
0.00411848
0.00428723
0.00449991
0.00472331
0.00493491
0.00509865
0.00527217
0.00542489
0.00555146
0.00566215
0.00583041
0.00606402
0.00636067
0.00646814
0.0065706
0.00669484
0.00682817
0.00698487
0.00712083
0.00723522
0.00729825
0.00470768
0.00416025
0.00419425
0.00438806
0.00461467
0.00482544
0.00503153
0.00518441
0.00534806
0.00548741
0.00560922
0.00571591
0.00587773
0.00610528
0.0063959
0.00649279
0.00658848
0.00671008
0.00685065
0.00700689
0.00715206
0.00726492
0.00731426
0.00468419
0.00419979
0.00426964
0.00448928
0.00471625
0.00491785
0.00511649
0.00526164
0.00541388
0.00554457
0.00565648
0.00576323
0.00591999
0.00614792
0.00642436
0.00651155
0.00660703
0.00672819
0.00686993
0.00703509
0.00718165
0.00728635
0.00733643
0.00467558
0.00424893
0.0043578
0.0045905
0.00481594
0.00500274
0.00519505
0.00532587
0.00547213
0.00559034
0.00569761
0.00580245
0.00595599
0.00617811
0.00644586
0.00652555
0.00661779
0.00673698
0.00688761
0.00706027
0.00721633
0.00731529
0.00735833
0.00466075
0.00431102
0.00444008
0.00468787
0.00490305
0.00507992
0.00526261
0.00538521
0.00552206
0.00563486
0.00573018
0.0058356
0.00598555
0.00620903
0.00646515
0.00653712
0.00663064
0.00675256
0.00691094
0.00708997
0.00725063
0.00734046
0.00738051
0.0046611
0.00438073
0.00453033
0.00478166
0.00498796
0.00515217
0.00532533
0.00543811
0.00556498
0.00567438
0.00576006
0.00586448
0.0060145
0.00623345
0.00647863
0.00654479
0.00663748
0.00676104
0.0069291
0.00711989
0.00728337
0.00736423
0.00740468
0.00466846
0.00446114
0.0046155
0.0048695
0.00506341
0.00521851
0.00538434
0.00548782
0.00559929
0.00569986
0.00578331
0.00588759
0.00603418
0.00625384
0.00649024
0.0065515
0.00664774
0.00677767
0.0069526
0.00715148
0.007319
0.00739239
0.00742999
0.00469308
0.00454828
0.00470444
0.00495426
0.00513874
0.00528419
0.00543717
0.00553275
0.005629
0.00571754
0.0058062
0.00590951
0.00605844
0.00627656
0.00650167
0.0065581
0.00665344
0.00678817
0.00697615
0.0071868
0.0073544
0.00741854
0.00744939
0.0047261
0.0046419
0.00479184
0.0050321
0.00520474
0.0053425
0.00548701
0.00556815
0.00565151
0.00572972
0.0058234
0.00592623
0.00607191
0.00628939
0.00650815
0.00656202
0.00666307
0.00680691
0.00699798
0.00722113
0.00738745
0.0074439
0.00746905
0.00477094
0.0047362
0.00487801
0.00510896
0.00526963
0.00539908
0.00552733
0.00559826
0.0056728
0.00574102
0.00584097
0.00594371
0.00609231
0.00631129
0.00651942
0.00657039
0.00667029
0.00682121
0.00702003
0.00725342
0.00742081
0.00746906
0.00748846
0.00481871
0.00483142
0.00496359
0.00517863
0.00532645
0.00544931
0.00556425
0.00562299
0.00568946
0.00575122
0.00585404
0.00595652
0.00610293
0.00632238
0.00652463
0.00657501
0.00667707
0.00683949
0.00704431
0.00727924
0.0074474
0.00748994
0.00750585
0.00487391
0.0049242
0.005049
0.00525037
0.0053817
0.00549586
0.0055903
0.00564247
0.00570655
0.0057619
0.00586852
0.0059722
0.00612046
0.00634123
0.00653214
0.00658298
0.00668655
0.00685206
0.00705784
0.00729052
0.00746156
0.00750351
0.00752122
0.00493071
0.00501176
0.00512673
0.00530771
0.00542684
0.00553545
0.0056122
0.00565559
0.00572006
0.00577196
0.00587893
0.00598253
0.00612908
0.00635167
0.00653698
0.00658858
0.00669354
0.00686111
0.00707038
0.00729496
0.00747006
0.00752045
0.00754417
0.00498373
0.00508673
0.00519874
0.00536144
0.00546768
0.00556794
0.00562806
0.0056662
0.00573392
0.0057821
0.00589031
0.00599552
0.00614307
0.00637057
0.00654504
0.00659891
0.00670619
0.0068779
0.00709255
0.00730095
0.00748069
0.00753829
0.00757902
0.00503613
0.00515528
0.00525979
0.00540224
0.0055014
0.00559615
0.00564309
0.00567611
0.00574554
0.00579128
0.00589885
0.00600447
0.00615202
0.00638454
0.00655526
0.00660875
0.00671934
0.00689139
0.00710545
0.00731105
0.00750267
0.00762149
0.00772558
0.00508467
0.0052152
0.00531586
0.00544084
0.00553138
0.00561907
0.00565699
0.00568782
0.0057578
0.00580107
0.00590831
0.00601484
0.00616626
0.00640886
0.00657367
0.00662834
0.00674885
0.00693282
0.00714333
0.00734851
0.00754451
0.00772553
0.00807264
0.00513147
0.00526938
0.00536375
0.00547275
0.00555665
0.00563886
0.00567125
0.00570012
0.00576874
0.00581012
0.0059158
0.00602306
0.00617744
0.00643245
0.00659517
0.00665463
0.00678488
0.00697698
0.00717605
0.00736903
0.00768677
0.00883403
0.0116446
0.00517698
0.00531924
0.00540824
0.00550335
0.00557922
0.00565616
0.00568553
0.00571448
0.00578031
0.00582021
0.00592425
0.00603188
0.00619287
0.00646357
0.00662425
0.00669725
0.00685166
0.00706739
0.00725618
0.00759493
0.00909602
0.0140855
0.024327
0.0052189
0.00536081
0.00544483
0.00552992
0.00559864
0.00567083
0.00569845
0.00572803
0.00579024
0.00582908
0.00593046
0.00603868
0.00620433
0.00648899
0.00665105
0.0067384
0.00691181
0.00714369
0.00740908
0.00801318
0.0106371
0.0177788
0.0320473
0.00525899
0.00539889
0.00547786
0.00555429
0.0056164
0.00568499
0.00571088
0.0057419
0.00579968
0.0058383
0.00593691
0.00604477
0.00621644
0.00651655
0.00667978
0.00678207
0.00697318
0.00722915
0.00758442
0.00848569
0.0114903
0.0190658
0.0343338
0.00529706
0.00543071
0.00550684
0.00557789
0.00563427
0.00569854
0.00572319
0.00575605
0.00580903
0.00584742
0.00594276
0.00605125
0.00622736
0.00654346
0.00670897
0.00682862
0.00703945
0.00731753
0.00774747
0.00888105
0.0120413
0.0196117
0.0353226
0.00533584
0.00546363
0.00553445
0.00560017
0.00565188
0.00571275
0.00573549
0.00576998
0.00581732
0.00585675
0.00594869
0.00605645
0.00623895
0.00657153
0.00673865
0.0068733
0.00710316
0.00739581
0.00790176
0.0089489
0.0120065
0.0202869
0.0366503
0.00537197
0.00548806
0.00555836
0.00562131
0.00566946
0.00572628
0.00574801
0.00578362
0.00582605
0.00586576
0.00595443
0.00606317
0.00624915
0.00659974
0.0067664
0.00691786
0.00716762
0.00747197
0.00796854
0.00901073
0.0120626
0.0198902
0.0357061
0.00540756
0.00551657
0.00558167
0.00564157
0.00568781
0.00574033
0.0057606
0.00579695
0.00583343
0.00587454
0.00595956
0.00606685
0.00625867
0.00662522
0.00679303
0.00695844
0.00722282
0.00752627
0.00800553
0.00906866
0.0121411
0.0201821
0.0365359
0.00544161
0.00553631
0.00560254
0.00566085
0.00570506
0.00575392
0.0057738
0.00580913
0.005842
0.00588319
0.00596505
0.00607384
0.0062677
0.00665273
0.0068176
0.00699886
0.00726753
0.00756273
0.00802452
0.00916254
0.0123135
0.0198098
0.0339604
0.00547226
0.00556089
0.00562326
0.00567891
0.00572335
0.00576706
0.00578679
0.00582156
0.00584907
0.00589096
0.00596944
0.00607683
0.00627702
0.0066769
0.00684086
0.0070341
0.00729892
0.00758534
0.00805895
0.00914282
0.0120491
0.0182497
0.029686
0.00550309
0.00557969
0.00564317
0.00569731
0.00574019
0.00578078
0.0058001
0.00583268
0.00585818
0.0058994
0.00597426
0.00607825
0.00628041
0.00669837
0.00686271
0.00706325
0.00731776
0.00758844
0.00805006
0.00912051
0.0114761
0.0163123
0.0250523
0.00552916
0.00560132
0.00566233
0.0057139
0.00575676
0.00579264
0.00581348
0.00584398
0.00586511
0.00590626
0.00597829
0.00608098
0.00628215
0.00671527
0.00688189
0.00708407
0.00732683
0.00758998
0.00805724
0.00897909
0.010804
0.0144045
0.020791
0.00555499
0.00562063
0.00568302
0.00573084
0.00577302
0.00580635
0.00582602
0.00585477
0.00587487
0.00591411
0.00598239
0.00608098
0.00628325
0.00671833
0.00689624
0.00709678
0.00732907
0.00759155
0.00802995
0.00877306
0.0101404
0.0127291
0.0172314
0.00557855
0.00564115
0.00570084
0.00574749
0.00578698
0.00581742
0.00583931
0.00586532
0.00588191
0.00592117
0.00598597
0.00608136
0.0062848
0.00672109
0.00690657
0.007103
0.00732834
0.00758173
0.00796748
0.00854581
0.00954403
0.0113518
0.0144304
0.00559908
0.00565993
0.00572087
0.00576234
0.00580258
0.00583046
0.00585078
0.00587536
0.00589145
0.00592726
0.00598995
0.00608347
0.0062864
0.00672569
0.00691126
0.00710494
0.00731536
0.0075505
0.00788476
0.00832267
0.00904049
0.0102781
0.0123347
0.00562088
0.00567992
0.00573963
0.00577853
0.00581418
0.00584133
0.00586368
0.00588558
0.00589861
0.00593486
0.00599342
0.00608243
0.00628475
0.00672911
0.00691236
0.00710368
0.00728984
0.00750363
0.00779043
0.00811795
0.00862865
0.00946087
0.0108056
0.00564035
0.00569776
0.00575598
0.00579266
0.00582921
0.00585317
0.00587415
0.00589504
0.00590777
0.00594003
0.00599558
0.00608297
0.00628534
0.00672746
0.00691303
0.00709075
0.00724998
0.00744288
0.00768943
0.00793239
0.00829861
0.00885121
0.00972377
0.00565995
0.00571754
0.00577639
0.00580838
0.00584017
0.00586508
0.00588667
0.00590461
0.00591479
0.00594665
0.00599797
0.00608405
0.00628293
0.00672773
0.00690899
0.00706227
0.00719886
0.00737401
0.00758669
0.00776605
0.00803097
0.00839698
0.0089639
0.00568137
0.00573309
0.00579379
0.00582211
0.00585517
0.00587543
0.00589902
0.00591489
0.00592402
0.00595295
0.00599641
0.00608491
0.00628242
0.00671966
0.00689485
0.00702421
0.00714227
0.0073015
0.00748248
0.00761796
0.00781216
0.00806051
0.00844125
0.00570953
0.00575554
0.0058137
0.00584098
0.00586775
0.0058918
0.00591037
0.00592676
0.00593312
0.00596
0.005997
0.00608292
0.00628252
0.0067033
0.00687184
0.00698037
0.0070821
0.00722791
0.00737998
0.00748659
0.00763059
0.00780567
0.00807217
0.00572275
0.00577449
0.00582818
0.00585736
0.00588705
0.00590224
0.00591925
0.00593379
0.00594405
0.00596521
0.00599715
0.00608254
0.00627848
0.00667898
0.0068463
0.0069372
0.00702438
0.00715655
0.00728401
0.00737127
0.0074804
0.00761618
0.00782348
0.00572847
0.00578913
0.00583897
0.00586626
0.00589117
0.00590855
0.00592644
0.00593775
0.00594756
0.00596565
0.00599912
0.00608343
0.00627266
0.0066519
0.00682062
0.00689999
0.00697352
0.0070914
0.00719961
0.00727144
0.0073568
0.00746712
0.00763651
0.00574366
0.00579484
0.00583841
0.0058758
0.00589617
0.00590898
0.00592614
0.00594094
0.00594977
0.00596628
0.005999
0.00608345
0.00626501
0.00662151
0.00679717
0.00686829
0.00693184
0.00703592
0.0071286
0.0071868
0.00725648
0.00735474
0.00751294
0.00574462
0.00579775
0.00584403
0.00587572
0.00590174
0.0059104
0.00592685
0.00594222
0.00595098
0.00596634
0.00599838
0.00608231
0.00625762
0.00659327
0.0067763
0.0068434
0.00689945
0.00699136
0.00707146
0.00711879
0.00717902
0.00726836
0.00741351
0.00574708
0.00580271
0.00584055
0.00587718
0.00589965
0.00591362
0.00592817
0.0059454
0.0059547
0.00596649
0.00599814
0.00608265
0.00624961
0.0065657
0.00675819
0.00682332
0.00687418
0.0069576
0.00702742
0.00706564
0.00711856
0.0072018
0.00734263
0.00575114
0.00580371
0.0058434
0.00588493
0.00590119
0.00591888
0.00592909
0.00594298
0.00595277
0.0059697
0.00599866
0.0060802
0.00624288
0.00654314
0.00674258
0.00680755
0.00685545
0.00693263
0.00699388
0.00702652
0.00707515
0.00715614
0.00728929
0.00575142
0.00580377
0.00584287
0.00588268
0.00590088
0.00591665
0.00592903
0.00594493
0.00595218
0.0059678
0.00599831
0.00607888
0.00623569
0.00652254
0.00672927
0.0067954
0.00684083
0.00691508
0.0069699
0.00699818
0.00704162
0.00711682
0.00724232
0.00575188
0.00580824
0.005846
0.00588226
0.00590187
0.00591662
0.00592922
0.00594174
0.00595218
0.00596922
0.00599979
0.00607798
0.00622998
0.00650717
0.00671786
0.00678589
0.00682999
0.00690184
0.00695209
0.00697797
0.00701925
0.00709051
0.00720741
0.00575745
0.00581196
0.00584089
0.00588241
0.00589736
0.00591705
0.0059292
0.00594182
0.00595182
0.00596616
0.00599822
0.00607858
0.00622339
0.00649293
0.00670876
0.00677752
0.00682142
0.00689251
0.00693946
0.00696313
0.00700056
0.00706773
0.00718358
0.00575455
0.00580569
0.00584116
0.00588363
0.00589686
0.00591918
0.0059312
0.0059439
0.00595192
0.00596918
0.00599862
0.00607687
0.00621801
0.00648318
0.00670159
0.00677053
0.00681521
0.00688588
0.0069295
0.00695188
0.00698815
0.00705278
0.007162
0.00575403
0.00580503
0.00584292
0.00588135
0.00590034
0.00591484
0.00593555
0.00594521
0.0059535
0.00596651
0.00599492
0.00607504
0.00621122
0.00647282
0.00669591
0.00676387
0.00680968
0.00687981
0.00692197
0.00694346
0.00697644
0.00703785
0.00714714
0.00575367
0.00580877
0.00584515
0.00588161
0.00589521
0.00591411
0.00593188
0.00594093
0.00595175
0.00596778
0.00599454
0.00607234
0.00620555
0.00646632
0.00668906
0.00675879
0.0068066
0.00687551
0.00691654
0.00693614
0.00696688
0.00702557
0.00712993
0.00575602
0.0058096
0.00583828
0.00587801
0.00589423
0.00591617
0.00593457
0.0059413
0.00595108
0.00596384
0.00599308
0.0060675
0.00619817
0.00645729
0.00668357
0.00675453
0.00680206
0.00687159
0.00691123
0.00693026
0.00695774
0.00701192
0.00710791
0.00574623
0.00580977
0.00583901
0.00587943
0.00589297
0.0059164
0.00593419
0.00594032
0.0059505
0.00596327
0.00599281
0.00606656
0.0061924
0.00645162
0.00667629
0.00674994
0.00679952
0.00686604
0.00690828
0.00692472
0.00694923
0.00699922
0.00708354
0.00574445
0.00580599
0.00583762
0.00587273
0.00589217
0.00591508
0.0059327
0.00594011
0.00595037
0.00596139
0.00599147
0.00606551
0.00618439
0.00644204
0.00666974
0.00674728
0.00679526
0.00686281
0.00690347
0.00692111
0.00694315
0.00698945
0.00707309
0.00574655
0.00580713
0.0058457
0.00587233
0.00589295
0.00591372
0.00593016
0.00594243
0.00594553
0.00596026
0.00599112
0.00606617
0.0061787
0.00643604
0.00666363
0.00674206
0.00679314
0.0068574
0.0069006
0.00691674
0.00693578
0.00697473
0.00706079
0.0057393
0.00579708
0.00583949
0.00587238
0.00589168
0.00591155
0.00592755
0.00594326
0.00594532
0.00595878
0.00599201
0.00606616
0.00617011
0.006425
0.00665622
0.00673763
0.00679149
0.00685431
0.00689487
0.00691181
0.00693193
0.00696059
0.00703502
0.00573651
0.0057961
0.00584368
0.00587518
0.00589132
0.00590863
0.00592376
0.0059418
0.00593961
0.00595804
0.00599287
0.00606512
0.00616484
0.00641841
0.00665106
0.00673405
0.0067891
0.0068502
0.00689171
0.00690884
0.00692455
0.00695514
0.00702901
0.00573685
0.00579224
0.00584566
0.00587282
0.00589348
0.00590341
0.0059192
0.00594056
0.00594342
0.0059589
0.00598997
0.00606159
0.00615584
0.00640571
0.00664237
0.00672775
0.00678612
0.00684609
0.00688648
0.00690154
0.00691982
0.00695305
0.00702678
0.00572402
0.00579225
0.00584378
0.00586978
0.00589468
0.00590032
0.00591736
0.00593767
0.00593839
0.00595897
0.00598468
0.00605935
0.00615132
0.00639911
0.00663734
0.00672418
0.00678844
0.0068439
0.00688484
0.00689936
0.00691187
0.00694591
0.00700085
0.00573234
0.00578915
0.00584105
0.00585906
0.00589118
0.00589885
0.00590979
0.00593516
0.00594073
0.00595293
0.00597761
0.00605444
0.00614173
0.00638357
0.00662617
0.00672068
0.00678435
0.00683639
0.0068796
0.00689347
0.00690854
0.00693522
0.00699548
0.00572149
0.00578819
0.00583461
0.00585659
0.00588719
0.00589031
0.00590867
0.00593224
0.00594064
0.00594911
0.00597608
0.00605322
0.00613834
0.006384
0.00662588
0.0067178
0.00678666
0.00683816
0.00687926
0.00689658
0.0069018
0.00693013
0.00699674
0.00572929
0.00579401
0.0058288
0.00584568
0.00588023
0.00588831
0.00591106
0.00592734
0.00593707
0.00594835
0.00597693
0.00604615
0.00612775
0.00635923
0.00660902
0.00671298
0.00677575
0.00682846
0.00687703
0.00689849
0.00690558
0.00691824
0.00698802
0.00572702
0.0057889
0.00581776
0.0058429
0.00586933
0.00589101
0.00590865
0.00592219
0.00593251
0.00594292
0.00597406
0.0060384
0.00611639
0.00633234
0.00658989
0.00670036
0.00677394
0.0068225
0.00687568
0.00690725
0.00690648
0.00692071
0.00698299
0.00571977
0.00577649
0.00580615
0.00584509
0.00585366
0.00588783
0.0059034
0.0059141
0.00592552
0.00594191
0.00596901
0.00602932
0.00610397
0.00630083
0.00657043
0.00669948
0.00677754
0.0068186
0.00687726
0.00691277
0.00692032
0.00692414
0.00698912
0.00571116
0.00575803
0.00579925
0.00583623
0.0058479
0.00587949
0.00589698
0.00590202
0.00591346
0.00593602
0.00596274
0.00601902
0.00608986
0.00626575
0.00654812
0.00668257
0.00676934
0.00681062
0.00686164
0.0069115
0.00693543
0.00693648
0.00698403
0.00569886
0.00573274
0.00577697
0.00581891
0.00584354
0.00586551
0.0058899
0.00588478
0.00589605
0.00592827
0.00595443
0.00600677
0.00607406
0.00622957
0.00651482
0.00666238
0.00675275
0.00680233
0.00685851
0.0069024
0.00694409
0.00694484
0.0069585
0.00568333
0.00572425
0.00576998
0.00579336
0.00583309
0.00584613
0.00587935
0.0058794
0.00588983
0.00591991
0.00594398
0.00599219
0.00605605
0.00619186
0.00646876
0.00662767
0.00674193
0.00678976
0.00685581
0.00690517
0.00694811
0.0069558
0.00695918
0.0056665
0.00572639
0.00577311
0.00578411
0.00581192
0.00581897
0.00586717
0.00588031
0.0058882
0.00590663
0.00592939
0.00597458
0.00603519
0.00615287
0.00640607
0.00659234
0.00673441
0.00678074
0.0068303
0.0068789
0.00694959
0.00697298
0.00696702
0.00564394
0.00571573
0.00576343
0.00578548
0.0057941
0.00580903
0.0058539
0.00587154
0.00587585
0.00589133
0.005914
0.0059565
0.0060124
0.00611299
0.00633043
0.00654479
0.00671093
0.00676159
0.00681796
0.00687481
0.00694241
0.00696451
0.00698492
0.00561712
0.00569614
0.00574483
0.00577147
0.00577605
0.00580841
0.00583607
0.00585477
0.00585816
0.00587216
0.00589461
0.0059345
0.00598611
0.00607205
0.00625024
0.00647148
0.00666217
0.00673874
0.00679296
0.00687473
0.00693761
0.00697929
0.00698587
0.00559682
0.00567228
0.00571926
0.00575118
0.00576836
0.00579383
0.0058141
0.00583474
0.00584037
0.00585362
0.00587453
0.00591089
0.00595706
0.00603029
0.0061691
0.00638482
0.00657819
0.00670031
0.00678353
0.00685319
0.00691753
0.00697643
0.00702703
0.00556323
0.00564135
0.00568517
0.00572247
0.00574355
0.00576949
0.00578713
0.00580781
0.00581625
0.00582923
0.00584863
0.00588091
0.00592308
0.00598586
0.0060945
0.00628186
0.00647686
0.00659967
0.00671259
0.00681321
0.00689317
0.00696029
0.00701783
0.00552607
0.00560822
0.00564873
0.00569034
0.00571438
0.00574051
0.00575708
0.00577855
0.00579078
0.00580396
0.00582116
0.00584953
0.00588658
0.00593934
0.00602518
0.0061778
0.00636282
0.00649243
0.00658917
0.00671875
0.0068412
0.00692202
0.00700952
0.00548321
0.00556739
0.00560602
0.00565004
0.00567517
0.0057031
0.00572161
0.0057409
0.00575522
0.00576945
0.00578575
0.00581054
0.00584481
0.00588894
0.00595638
0.00607056
0.00624145
0.00636912
0.00646035
0.00655453
0.00669279
0.00684403
0.00696319
0.00543939
0.00552399
0.00556251
0.00560734
0.00563416
0.00566254
0.00568229
0.00570096
0.00571809
0.00573332
0.00574811
0.00577043
0.00580014
0.00583775
0.00588962
0.00597286
0.00611675
0.00624746
0.00633798
0.00640702
0.00650275
0.00663285
0.00685518
0.00539002
0.00547045
0.00550911
0.00555429
0.00558137
0.0056117
0.00563364
0.00564997
0.00566812
0.0056845
0.00569942
0.00571985
0.00574738
0.00577948
0.0058212
0.00587926
0.00598161
0.00610378
0.00619927
0.00625987
0.00632311
0.00640573
0.00654824
0.00533511
0.00541288
0.00545149
0.00549799
0.00552595
0.00555625
0.00557989
0.00559687
0.00561716
0.00563454
0.00564829
0.0056667
0.00569153
0.00571745
0.00575529
0.00579807
0.00586941
0.00596518
0.00606032
0.00612464
0.00617199
0.00622043
0.00630457
0.0052637
0.00534075
0.00537803
0.00542719
0.00545447
0.00548549
0.00551116
0.00552843
0.00554971
0.00556761
0.00558248
0.00559829
0.00562299
0.00564398
0.00567394
0.0057088
0.00575616
0.00582357
0.00590036
0.00596847
0.00601933
0.00605017
0.00610124
0.005181
0.00526441
0.00530033
0.00535318
0.0053802
0.0054095
0.00543807
0.00545742
0.00548077
0.00550047
0.00551528
0.00552832
0.00555052
0.00557
0.0055947
0.00562482
0.00566063
0.0057058
0.00576185
0.00581628
0.00586837
0.00589798
0.00593311
0.00507336
0.00516953
0.00520462
0.00526115
0.00528686
0.00531478
0.00534445
0.00536572
0.00538892
0.00540855
0.0054264
0.00543817
0.00545814
0.0054761
0.00549452
0.00551756
0.00554791
0.00557869
0.00561978
0.00566006
0.00570538
0.00573492
0.00576827
0.0049641
0.00507216
0.00510819
0.0051684
0.00519341
0.00521933
0.00525073
0.00527272
0.0052968
0.00531727
0.00533627
0.00534658
0.00536333
0.00538217
0.00540052
0.00541584
0.00544103
0.00546389
0.00549309
0.00552066
0.00555721
0.0055816
0.00561321
0.00483895
0.00495189
0.00499031
0.00505194
0.00507667
0.0051002
0.00513078
0.00515363
0.00517452
0.00519282
0.0052145
0.00522712
0.00523969
0.00525413
0.00527303
0.00528481
0.00530474
0.00532074
0.00534472
0.00536097
0.00538879
0.00540583
0.00543107
0.00472486
0.0048333
0.00487568
0.00493707
0.00496318
0.0049859
0.00501578