/*--------------------------------*- C++ -*----------------------------------*\
  =========                 |
  \\      /  F ield         | OpenFOAM: The Open Source CFD Toolbox
   \\    /   O peration     | Website:  https://openfoam.org
    \\  /    A nd           | Version:  7
     \\/     M anipulation  |
\*---------------------------------------------------------------------------*/
FoamFile
{
    version     2.0;
    format      ascii;
    class       volScalarField;
    location    "50";
    object      nut;
}
// * * * * * * * * * * * * * * * * * * * * * * * * * * * * * * * * * * * * * //

dimensions      [0 2 -1 0 0 0 0];

internalField   nonuniform List<scalar> 
12842
(
0.00181044
0.00179768
0.00178028
0.00177631
0.00177476
0.00177443
0.00176867
0.00176681
0.00176212
0.00176014
0.00175931
0.00175824
0.00176033
0.00176336
0.00121015
0.00064929
0.000404698
0.000281181
0.000209261
0.000163155
0.000131963
0.000110843
9.48965e-05
0.00180559
0.0017997
0.00178671
0.0017696
0.00176368
0.00176689
0.00176581
0.00176578
0.00176223
0.00176124
0.00176058
0.00175855
0.00176145
0.00176415
0.00116053
0.00062399
0.000389545
0.000271744
0.000202978
0.000158886
0.000129118
0.000109257
9.35174e-05
0.0018098
0.00178862
0.00178501
0.00177646
0.00176342
0.00175949
0.00175472
0.00175725
0.00175655
0.00175826
0.00175873
0.00175738
0.00176121
0.00176366
0.0011103
0.000600919
0.000377453
0.000264577
0.000198393
0.000155921
0.000126947
0.000108026
9.21602e-05
0.00180787
0.00179363
0.00178408
0.00177583
0.00177225
0.00176889
0.00176301
0.00175936
0.00175621
0.00175715
0.00175753
0.00175641
0.001761
0.0017636
0.00105626
0.000575687
0.000363769
0.000256508
0.000192997
0.000152182
0.000124304
0.000106392
9.05609e-05
0.00180748
0.00178472
0.00177813
0.00177022
0.00176374
0.00176669
0.00176404
0.00176088
0.00175619
0.00175616
0.00175563
0.0017553
0.00176045
0.00176373
0.0010069
0.000551957
0.000350941
0.00024831
0.000187583
0.000148415
0.000121463
0.000104511
8.88339e-05
0.00180782
0.00178716
0.00177564
0.00177561
0.00177105
0.00176803
0.00176614
0.00176474
0.00176049
0.00175828
0.00175631
0.00175517
0.00176024
0.00176441
0.000968433
0.000533096
0.0003402
0.000241655
0.000183047
0.000145086
0.000118966
0.000102751
8.72337e-05
0.00180669
0.00178541
0.00177288
0.00176433
0.00176502
0.00176652
0.0017652
0.00176324
0.0017605
0.00175782
0.00175755
0.00175644
0.00176062
0.00176543
0.000940218
0.000518409
0.000331642
0.000235923
0.00017911
0.000142114
0.000116665
0.000100978
8.57015e-05
0.00180579
0.00178441
0.00177274
0.00177003
0.00176719
0.00176666
0.00176614
0.00176532
0.00176243
0.00175843
0.00175786
0.00175749
0.00176124
0.00176641
0.000933803
0.000513494
0.000327606
0.000232566
0.000176741
0.000139951
0.00011456
9.94025e-05
8.4225e-05
0.00180399
0.00178339
0.00176956
0.00176496
0.00176503
0.00176197
0.00176517
0.00176441
0.00176217
0.00175697
0.00175726
0.00175879
0.00176225
0.00176943
0.000925598
0.000508139
0.000323758
0.000229709
0.000174254
0.000138044
0.00011301
9.81598e-05
8.33719e-05
0.00180366
0.0017798
0.00177196
0.00176784
0.00176552
0.00176093
0.0017631
0.00176398
0.00176342
0.00175701
0.00175751
0.00175971
0.00176309
0.00177
0.000901434
0.000496387
0.00031689
0.00022519
0.000170948
0.000135953
0.000111356
9.71067e-05
8.31509e-05
0.00180178
0.00178241
0.00176955
0.00176627
0.00176498
0.00175901
0.0017609
0.00176111
0.00176197
0.00175584
0.00175833
0.00176036
0.00176374
0.00177222
0.000886953
0.000488843
0.000312544
0.000222088
0.00016885
0.000134409
0.000110426
9.71708e-05
8.40181e-05
0.00180116
0.00177543
0.00177116
0.00176639
0.00176455
0.0017584
0.00175907
0.00175939
0.00176217
0.00175692
0.00175958
0.00176082
0.00176404
0.00177321
0.000871663
0.00048104
0.000307833
0.000218817
0.00016652
0.000133327
0.000110429
9.78797e-05
8.53658e-05
0.00179926
0.00177975
0.0017706
0.00176541
0.001764
0.00175811
0.00175743
0.00175626
0.00175982
0.00175795
0.00176087
0.0017612
0.00176388
0.00177369
0.000854564
0.000473282
0.000302524
0.00021561
0.000164726
0.00013317
0.000110871
9.92816e-05
8.72138e-05
0.00179851
0.00177326
0.00177055
0.00176452
0.00176318
0.00175819
0.00175612
0.00175516
0.00175962
0.00176037
0.00176236
0.00176165
0.00176413
0.00176184
0.000840017
0.000464949
0.000297892
0.000213449
0.000164246
0.00013395
0.000112234
0.000100962
8.9407e-05
0.00179646
0.00177629
0.0017704
0.00176391
0.00176207
0.00175885
0.00175532
0.00175376
0.00175827
0.00176261
0.00176366
0.00176179
0.00176218
0.00172645
0.000827243
0.000459768
0.000295095
0.000212865
0.000164807
0.000135532
0.000114223
0.000103374
9.20233e-05
0.00179579
0.00177349
0.00176781
0.0017619
0.0017605
0.00175943
0.00175503
0.00175405
0.0017593
0.0017649
0.00176462
0.00176172
0.00176353
0.00169759
0.000821146
0.000456748
0.000294829
0.000213983
0.0001666
0.000138
0.000116835
0.000105853
9.49253e-05
0.00179407
0.00177335
0.00176774
0.00176283
0.00175977
0.00176008
0.0017553
0.00175579
0.00176
0.0017667
0.00176474
0.00176158
0.0017636
0.00168714
0.000823
0.000458032
0.000297403
0.000216464
0.000169413
0.000141175
0.000120225
0.000109064
9.82739e-05
0.00179369
0.00177338
0.00176366
0.00175927
0.00175795
0.00176038
0.00175562
0.0017578
0.00176184
0.00176693
0.00176454
0.00176126
0.00176232
0.00169828
0.000831379
0.000464494
0.000302422
0.000220747
0.000173374
0.000145155
0.000124109
0.000112471
0.000101942
0.00179255
0.00177163
0.00176367
0.00176148
0.0017582
0.00176107
0.0017566
0.00175997
0.00176241
0.00176604
0.00176428
0.001761
0.00175694
0.00172549
0.000848122
0.000475216
0.000309751
0.000226174
0.000178344
0.000149892
0.000128877
0.000116702
0.000106257
0.0017925
0.00177189
0.00175942
0.00175739
0.00175676
0.00176151
0.00175689
0.00175986
0.00176178
0.00176365
0.00176305
0.00175831
0.00173799
0.00169707
0.00087276
0.000490275
0.000319175
0.000233312
0.000184335
0.000155428
0.000134248
0.000121377
0.000110981
0.00179194
0.00177047
0.00175924
0.00175886
0.00175728
0.00176263
0.00175785
0.00175808
0.00176018
0.00176247
0.00176102
0.00174651
0.00171132
0.00167129
0.000904651
0.000508086
0.000330163
0.000241362
0.000191338
0.000161772
0.000140575
0.000127178
0.000116525
0.00179215
0.00177099
0.00175558
0.00175578
0.00175778
0.00176275
0.00175548
0.00175498
0.0017564
0.00175331
0.00174595
0.00172516
0.00168827
0.00165494
0.000940223
0.000528735
0.000342928
0.000250898
0.000199313
0.000169011
0.000147794
0.000133722
0.000122808
0.0017913
0.00177028
0.00175376
0.00175621
0.00175772
0.00176454
0.00175534
0.00175304
0.00175176
0.00174133
0.00172849
0.00170253
0.00166621
0.00164321
0.000984435
0.000552194
0.000356978
0.000261313
0.000208275
0.000176996
0.000155942
0.000141684
0.00013009
0.00179214
0.00177188
0.00175482
0.00175525
0.00175856
0.00176157
0.00175049
0.00174632
0.00173826
0.0017144
0.00170082
0.00167738
0.00165018
0.0016391
0.00102586
0.000575715
0.00037201
0.000272741
0.000218058
0.000185993
0.000165041
0.000150638
0.000138758
0.00179148
0.00177265
0.00175248
0.00175547
0.00175756
0.00175955
0.00174708
0.00173231
0.00171148
0.00169067
0.00168156
0.0016592
0.00164281
0.00164282
0.00106349
0.000597494
0.000386482
0.000284511
0.000228929
0.000196159
0.000175517
0.000161253
0.00014871
0.00179323
0.00177298
0.00174827
0.00175562
0.00175576
0.00175821
0.00174041
0.00170524
0.00168271
0.00167264
0.00166634
0.00164752
0.00164223
0.00165089
0.00110283
0.000620457
0.000402456
0.000297335
0.000240336
0.000206888
0.000186205
0.000171753
0.000158919
0.00179352
0.00177428
0.00174181
0.00175358
0.00175324
0.0017547
0.00172161
0.0016759
0.00166037
0.00166356
0.00165632
0.00164206
0.00164799
0.00166499
0.00114417
0.000644246
0.000418522
0.000310142
0.000252087
0.000218013
0.00019738
0.000182968
0.000169707
0.00179532
0.00177265
0.00173468
0.00175262
0.00174795
0.00174648
0.0016963
0.00165067
0.0016476
0.00165809
0.00165127
0.00164291
0.00165791
0.0016805
0.00118443
0.00066736
0.000434896
0.00032361
0.000264066
0.0002293
0.000208475
0.000193823
0.000180535
0.00179677
0.00177334
0.00172611
0.00174993
0.00174161
0.00172885
0.00166946
0.00163315
0.00164025
0.00165863
0.00165117
0.00164863
0.00167135
0.0016993
0.00122276
0.000690083
0.000450982
0.000336337
0.000275815
0.000240681
0.000219732
0.000204969
0.000191574
0.00179932
0.0017692
0.00171547
0.00174536
0.00172491
0.001703
0.00164951
0.00162266
0.00164098
0.00166227
0.001655
0.00165805
0.00168612
0.00171736
0.00126027
0.000711811
0.000466574
0.000349646
0.000287737
0.000251934
0.000230803
0.000215702
0.000202524
0.0018012
0.00176779
0.0017082
0.00173762
0.00170326
0.00167867
0.00163474
0.00161911
0.00164529
0.00166954
0.00166315
0.00167027
0.00170204
0.00173634
0.00129447
0.000732579
0.000481967
0.000361852
0.000299103
0.00026319
0.000241791
0.000226434
0.000213509
0.00180478
0.00176241
0.00170488
0.00172439
0.00167801
0.00165997
0.0016285
0.00162224
0.00165493
0.00167868
0.00167346
0.00168387
0.00171762
0.0017536
0.00132856
0.000752801
0.000496624
0.000374647
0.000310637
0.000274024
0.000252533
0.000236765
0.000224276
0.00180596
0.00175952
0.00170399
0.00170558
0.00165986
0.00164866
0.0016295
0.00162951
0.00166703
0.00169081
0.00168736
0.00169881
0.00173306
0.00177039
0.0013591
0.000771575
0.000510827
0.000386139
0.000321398
0.000284886
0.000263016
0.000246799
0.000235046
0.00181051
0.00175346
0.00170223
0.00169413
0.00164846
0.00164446
0.00163721
0.00164231
0.00168118
0.0017029
0.00170178
0.0017135
0.00174734
0.00178511
0.00138955
0.000790243
0.000524776
0.000398234
0.000332312
0.000295014
0.000273093
0.000256361
0.000245372
0.00181091
0.00175069
0.00170238
0.00168039
0.00164534
0.00164591
0.00164941
0.00165492
0.00169779
0.00171725
0.00171715
0.00172882
0.001761
0.00179896
0.00141761
0.000807752
0.000537726
0.000408979
0.00034228
0.000305146
0.000282772
0.000265544
0.000255634
0.00181462
0.0017462
0.00170062
0.00167838
0.00165062
0.00165341
0.00166604
0.00167159
0.00171198
0.00173046
0.00173206
0.00174249
0.00177306
0.00181046
0.00144514
0.000824999
0.000551168
0.000420305
0.000352505
0.000314477
0.000292058
0.000274066
0.000265303
0.00181533
0.00174099
0.00169926
0.00167393
0.00165828
0.0016631
0.00168326
0.00168576
0.00172877
0.00174266
0.00174556
0.00175643
0.00178444
0.00182146
0.00147205
0.000842121
0.000563309
0.000430441
0.000361602
0.000323669
0.000300778
0.000282324
0.000274845
0.00181641
0.00173452
0.00169789
0.00167736
0.00167445
0.00167609
0.00170168
0.00170134
0.00174041
0.00175388
0.0017589
0.00176782
0.0017941
0.00182982
0.00149802
0.000858587
0.00057633
0.000440917
0.000371098
0.00033214
0.000309253
0.000289935
0.000283542
0.00181472
0.00172543
0.00169676
0.00168092
0.00168649
0.00168954
0.00171861
0.00171526
0.00175201
0.0017624
0.00177036
0.00177923
0.001803
0.00183861
0.00152528
0.000875987
0.000588276
0.000450852
0.000379456
0.000340377
0.000316928
0.000296828
0.000291995
0.00181513
0.00171612
0.00169744
0.00168729
0.00170235
0.00170325
0.00173367
0.00172709
0.00176023
0.00176986
0.00178099
0.00178803
0.00181055
0.00184444
0.00155091
0.000892572
0.00060107
0.000460447
0.000388154
0.000347901
0.000324655
0.00030342
0.000299627
0.00180708
0.00170981
0.00169689
0.00169428
0.00171265
0.00171645
0.00174594
0.00173809
0.00176755
0.00177788
0.00179032
0.00179671
0.00181704
0.00185149
0.00158
0.000911066
0.000613432
0.000470643
0.000396074
0.000355217
0.000331185
0.000308913
0.000306691
0.00180411
0.00170358
0.0016995
0.00170163
0.00172355
0.0017276
0.00175542
0.00174575
0.00177396
0.0017838
0.00179769
0.00180324
0.0018229
0.00185537
0.00160717
0.000928491
0.000626305
0.000479838
0.000404049
0.000361969
0.000338055
0.000314473
0.000313517
0.00179232
0.00170042
0.0016989
0.00170834
0.00173029
0.0017375
0.00176212
0.00175446
0.00178207
0.00179235
0.0018038
0.00180936
0.00182734
0.00186091
0.00163862
0.000948985
0.000640087
0.000490495
0.000412172
0.000368691
0.000344045
0.000319604
0.000319458
0.00177846
0.00169842
0.00170076
0.00171628
0.00173793
0.00174447
0.0017668
0.00176217
0.00178897
0.00180033
0.00180894
0.00181397
0.00183193
0.00186373
0.00167039
0.000968519
0.000653571
0.000500564
0.00042009
0.000375678
0.000350339
0.000324272
0.000324649
0.00176609
0.00169783
0.00170097
0.00172257
0.00174377
0.00175108
0.00177388
0.00177156
0.00179408
0.00180635
0.00181364
0.00181793
0.00183489
0.00186743
0.00170411
0.000991965
0.000669677
0.000512514
0.000429276
0.000382769
0.000356497
0.000329037
0.000329274
0.00175537
0.00170051
0.00170153
0.00173028
0.0017521
0.00175723
0.00177987
0.00178096
0.0017987
0.0018093
0.00181779
0.00182111
0.00183853
0.00187036
0.00174301
0.0010153
0.000685614
0.000525175
0.000438812
0.000391003
0.000363606
0.000334082
0.000333857
0.00175104
0.00170471
0.00170662
0.00173667
0.00175847
0.00176357
0.00178799
0.00178806
0.0018028
0.00181079
0.0018201
0.00182382
0.00184058
0.00187224
0.00178113
0.0010437
0.000705108
0.000539263
0.000450254
0.000400683
0.000371012
0.000339581
0.00033784
0.00175092
0.00171327
0.00171075
0.00174555
0.00176736
0.00176977
0.00179335
0.00179493
0.00180723
0.00181441
0.00182397
0.0018263
0.00184355
0.00187528
0.00182798
0.00107318
0.0007256
0.000557565
0.000463442
0.000411728
0.000381672
0.000347333
0.000344147
0.00175445
0.00172252
0.00172057
0.00175382
0.00177358
0.00177671
0.00179938
0.00179943
0.00181091
0.00181722
0.00182753
0.00182834
0.00184503
0.00187679
0.00187376
0.00110698
0.000749627
0.000575901
0.000478371
0.000426097
0.000394234
0.000357672
0.000351627
0.00176041
0.00173567
0.00173159
0.00176349
0.00178101
0.00178181
0.00180086
0.00180202
0.00181417
0.00181859
0.00183
0.00183058
0.00184756
0.00187908
0.00187618
0.00113734
0.00077234
0.0005955
0.000495776
0.000439332
0.000408496
0.000376705
0.000366464
0.00176589
0.00174838
0.00174218
0.00177094
0.0017862
0.0017889
0.00180274
0.00180288
0.00181576
0.00181947
0.00183125
0.00183198
0.00184876
0.00188042
0.00187425
0.00116042
0.000790476
0.000609445
0.000508723
0.000450543
0.000427259
0.000396301
0.000379984
0.0017726
0.00176222
0.00175264
0.00177774
0.00179074
0.00179342
0.00180205
0.00180251
0.00181642
0.00181952
0.00183272
0.00183378
0.0018504
0.0018827
0.00186971
0.00119122
0.000818197
0.000630719
0.000531232
0.000470829
0.00044575
0.000415748
0.000393986
0.00177779
0.0017748
0.00176183
0.00178228
0.00179454
0.00179875
0.00180186
0.00180158
0.00181631
0.00181943
0.0018334
0.00183483
0.00185164
0.00188494
0.00186836
0.00121559
0.000837585
0.000647719
0.000546739
0.000482513
0.0004684
0.000447009
0.000448086
0.00178305
0.00178734
0.00177224
0.00178647
0.00179705
0.00180219
0.00180096
0.00180109
0.00181619
0.00181943
0.00183396
0.00183601
0.00185362
0.00188839
0.00186402
0.00125038
0.000874381
0.000681036
0.000577824
0.000531073
0.000519189
0.000599831
0.000725819
0.00178678
0.00179705
0.00178179
0.00178999
0.00179914
0.00180523
0.00180091
0.0018014
0.00181625
0.00181946
0.00183365
0.00183683
0.00185535
0.00189242
0.00186302
0.00127926
0.000903419
0.000716999
0.000621551
0.000579138
0.000711267
0.000738672
0.000653937
0.00179093
0.00180496
0.00179107
0.00179367
0.0018
0.00180756
0.00180134
0.00180283
0.00181681
0.00181993
0.00183359
0.00183747
0.0018578
0.00189676
0.00185742
0.00131366
0.00094202
0.000777369
0.000679445
0.000729639
0.000784504
0.000649535
0.000707044
0.00179526
0.00180911
0.0017982
0.00179741
0.00180073
0.00180911
0.00180248
0.00180442
0.00181749
0.0018205
0.00183314
0.00183791
0.00185963
0.00190008
0.00185327
0.00135934
0.00099377
0.000837928
0.00077393
0.000913475
0.000711554
0.000713406
0.000804046
0.00180054
0.00181255
0.00180381
0.00180095
0.00180091
0.00181063
0.00180377
0.00180632
0.00181805
0.00182114
0.00183311
0.0018381
0.00186175
0.00190388
0.00184702
0.00142391
0.00107006
0.000940924
0.000922429
0.000847814
0.000693943
0.000723153
0.000812885
0.00180607
0.00181332
0.00180798
0.00180435
0.00180141
0.00181147
0.0018054
0.00180798
0.00181868
0.00182188
0.00183285
0.00183839
0.00186345
0.00190699
0.00184201
0.00148288
0.00115336
0.00104558
0.00101011
0.000788177
0.000673767
0.000688318
0.000768694
0.00181219
0.00181506
0.001811
0.00180743
0.00180172
0.00181249
0.00180691
0.00180973
0.0018187
0.00182242
0.00183286
0.0018384
0.00186522
0.00191016
0.00183544
0.00155018
0.00122262
0.00115045
0.000958524
0.00075698
0.000668561
0.000712367
0.000798014
0.00181769
0.00181372
0.00181296
0.00180959
0.00180235
0.00181271
0.00180842
0.00181093
0.00181889
0.00182289
0.00183277
0.00183865
0.00186691
0.00191383
0.00182863
0.00162432
0.00129968
0.00115651
0.000917762
0.000745416
0.000664405
0.000692803
0.000772787
0.00182249
0.0018144
0.00181431
0.00181145
0.00180325
0.00181305
0.00180972
0.00181222
0.00181837
0.00182306
0.00183248
0.00183855
0.00186788
0.00191516
0.00182133
0.0016388
0.00137124
0.00113271
0.000895054
0.000722942
0.000652248
0.000695661
0.000786271
0.001826
0.00181185
0.00181518
0.00181222
0.00180402
0.00181275
0.00181073
0.00181275
0.00181807
0.001823
0.00183236
0.00183886
0.00186895
0.00191801
0.00181672
0.00163075
0.00139582
0.00112314
0.00088962
0.000730032
0.000657616
0.000666739
0.000727936
0.00182796
0.00181124
0.00181572
0.00181258
0.00180543
0.0018122
0.00181171
0.00181345
0.00181737
0.00182267
0.00183166
0.00183873
0.00187054
0.00192165
0.00181504
0.00162952
0.00139124
0.00111605
0.00089042
0.000724102
0.000645708
0.000631724
0.000680954
0.00182823
0.00180836
0.0018163
0.00181242
0.00180627
0.00181174
0.00181207
0.00181351
0.00181674
0.00182217
0.00183124
0.0018386
0.00187144
0.00192556
0.00181509
0.0016325
0.00139688
0.00112099
0.000887632
0.000710895
0.000610367
0.000602696
0.000640853
0.00182763
0.00180674
0.00181607
0.00181185
0.00180747
0.00181028
0.00181262
0.00181353
0.00181604
0.00182139
0.00183036
0.00183894
0.00187171
0.00192833
0.0018205
0.00163595
0.00139797
0.0011215
0.000880437
0.000690395
0.000589396
0.000579545
0.000605154
0.00182454
0.00180401
0.0018169
0.00181093
0.00180849
0.00181012
0.00181262
0.00181357
0.00181532
0.00182057
0.00182957
0.00183755
0.00187111
0.00192936
0.00182255
0.00163648
0.00139165
0.0011131
0.000873975
0.000682266
0.000580183
0.000564881
0.000577484
0.00182265
0.00180246
0.00181581
0.00181046
0.00180876
0.00180839
0.00181262
0.00181312
0.00181459
0.00181981
0.00182876
0.00183629
0.00187171
0.00192935
0.00182424
0.00163989
0.00139546
0.00111793
0.000871187
0.000665258
0.000580381
0.000558581
0.000558725
0.00181806
0.0018001
0.00181627
0.00180903
0.00180991
0.00180827
0.00181246
0.00181322
0.00181396
0.00181829
0.0018278
0.00183706
0.0018722
0.00193015
0.00182764
0.00163774
0.00139148
0.00111152
0.00086211
0.000670203
0.000591381
0.000563586
0.000550174
0.00181458
0.00179907
0.00181549
0.00180814
0.0018094
0.00180688
0.001812
0.00181264
0.00181281
0.00181747
0.00182712
0.00183663
0.00187159
0.00193185
0.00182834
0.00163883
0.00140034
0.00112278
0.000873985
0.000692315
0.000612285
0.000577898
0.000552907
0.00181114
0.00179617
0.00181372
0.00180632
0.00180959
0.00180602
0.00181118
0.00181239
0.00181187
0.00181517
0.00182533
0.00183601
0.00187151
0.00193152
0.00182836
0.00164059
0.00141965
0.00114825
0.000901291
0.000726605
0.000643968
0.000602352
0.000564437
0.00180519
0.00179549
0.00181358
0.00180431
0.00180898
0.0018049
0.00181008
0.00181133
0.00181071
0.0018139
0.00182359
0.00183648
0.00187073
0.00193155
0.0018316
0.00164858
0.00144501
0.0011828
0.000939115
0.000769619
0.000683312
0.000633118
0.000584531
0.00180229
0.00179173
0.00181107
0.00180299
0.00180779
0.00180358
0.00180969
0.00181108
0.00180979
0.00181277
0.00182137
0.00183669
0.0018708
0.00193138
0.00183746
0.001661
0.00147359
0.00122224
0.000983549
0.000817322
0.000728993
0.000670485
0.000608981
0.00180131
0.00179371
0.00180971
0.00180305
0.00180733
0.00180789
0.00180934
0.00181047
0.00181024
0.00181414
0.00181992
0.00183538
0.00187078
0.00193014
0.00184395
0.00167583
0.00150201
0.0012624
0.00103129
0.000865737
0.000776844
0.000709277
0.000636748
0.00179859
0.00179558
0.00180924
0.00180449
0.00180934
0.00181031
0.00181031
0.00181103
0.00181218
0.00181521
0.00182002
0.00183564
0.00187031
0.00192744
0.00185151
0.00169255
0.00152916
0.00130071
0.00107991
0.000911871
0.000823601
0.000748405
0.000662883
0.00179535
0.00180075
0.00180823
0.00180734
0.00181083
0.00181064
0.00181147
0.00181091
0.00181238
0.00181438
0.00181972
0.00183608
0.00186873
0.00192403
0.00185915
0.00171004
0.00155365
0.00133479
0.00112708
0.000953524
0.000867161
0.000784047
0.000689528
0.00180024
0.00180177
0.00180787
0.00180991
0.00181159
0.00180994
0.00181069
0.00181178
0.00181205
0.00181471
0.00182017
0.00183609
0.00186658
0.00191972
0.001867
0.00172751
0.00157575
0.00136408
0.00117143
0.000991156
0.00090539
0.000816031
0.000713765
0.0018
0.00180241
0.00180907
0.00180963
0.00181137
0.00180921
0.00181038
0.00181119
0.0018129
0.00181462
0.00181995
0.00183517
0.00186433
0.0019155
0.00187392
0.00174366
0.00159468
0.00138775
0.00121076
0.00102535
0.000939017
0.000844382
0.000732213
0.00179953
0.00180174
0.00180732
0.00180874
0.00181134
0.00181082
0.00181115
0.00181257
0.00181364
0.00181442
0.00181927
0.00183583
0.00186278
0.0019113
0.00188028
0.00175857
0.00161145
0.00140767
0.00124453
0.00105775
0.000968492
0.000868084
0.000754856
0.00179902
0.00180295
0.00180707
0.00181208
0.00181153
0.00181262
0.00181123
0.00181113
0.00181279
0.00181476
0.00182011
0.00183534
0.00186087
0.00190784
0.00188509
0.00177064
0.00162524
0.00142414
0.00127039
0.00108861
0.000994354
0.000889331
0.000768323
0.00179682
0.00180331
0.00180648
0.00181118
0.00181038
0.0018111
0.00181121
0.00181171
0.00181274
0.00181463
0.00181919
0.00183507
0.00185838
0.00190489
0.00188948
0.0017814
0.00163754
0.00143998
0.00129062
0.00111932
0.00101952
0.00090676
0.000782927
0.00179854
0.00180478
0.00180755
0.00181115
0.00181176
0.00181191
0.00181115
0.00181076
0.00181309
0.00181512
0.00182031
0.00183495
0.00185693
0.00190276
0.00189236
0.00178908
0.00164675
0.00145417
0.00130476
0.00114806
0.00104366
0.000925569
0.000802745
0.00179879
0.00180606
0.00180587
0.00181115
0.00180998
0.00181163
0.00181058
0.00181078
0.00181294
0.00181419
0.00181974
0.00183522
0.00185583
0.00190108
0.00189544
0.0017964
0.00165538
0.00146936
0.0013184
0.00117722
0.00106793
0.000941236
0.000816606
0.00179999
0.00180475
0.00180728
0.00181163
0.00180851
0.00181352
0.00181229
0.00181208
0.00181409
0.00181478
0.00181955
0.0018342
0.00185506
0.00189994
0.0018973
0.00180109
0.00166115
0.00148308
0.00133006
0.00120358
0.00109086
0.000959756
0.000829844
0.00180013
0.00180464
0.001808
0.00181094
0.00181057
0.0018113
0.00181375
0.00181248
0.00181469
0.001815
0.00181858
0.00183359
0.00185423
0.00189893
0.00189965
0.00180679
0.00166768
0.00149826
0.00134626
0.00123202
0.00111607
0.000978124
0.000845823
0.00180059
0.00180458
0.00180882
0.00181073
0.00180842
0.00181216
0.0018124
0.00181146
0.00181409
0.00181554
0.00181846
0.00183291
0.00185348
0.00189823
0.00190008
0.00181019
0.00167236
0.00151117
0.00136147
0.00125671
0.00113891
0.00099912
0.000862394
0.00180173
0.00180674
0.00180555
0.00181007
0.00180958
0.00181329
0.00181459
0.00181299
0.00181431
0.00181403
0.00181903
0.00183185
0.00185255
0.00189736
0.00190149
0.00181601
0.00167976
0.00152668
0.00138341
0.00128597
0.00116658
0.00101672
0.000879177
0.00179879
0.00180659
0.00180572
0.00181083
0.00180894
0.00181332
0.00181472
0.0018129
0.00181443
0.0018139
0.00181958
0.00183211
0.00185175
0.00189665
0.00190101
0.00181893
0.00168601
0.00153855
0.00140194
0.00131029
0.00119181
0.00103759
0.000898602
0.00179938
0.00180633
0.00180522
0.00180957
0.00180896
0.00181331
0.00181491
0.00181342
0.00181433
0.00181424
0.00181964
0.0018324
0.00185064
0.00189571
0.00190193
0.00182534
0.00169663
0.00155587
0.00142847
0.00134194
0.00122515
0.00106567
0.000918512
0.00180175
0.00180732
0.00181028
0.00180938
0.00180819
0.00181157
0.00181435
0.00181424
0.00181423
0.0018142
0.00181919
0.00183358
0.00184979
0.00189501
0.00190178
0.00182785
0.00170574
0.00156847
0.001448
0.00136641
0.00125151
0.00110639
0.00094989
0.00179964
0.00180531
0.00180905
0.00181159
0.00180767
0.00181237
0.00181413
0.00181499
0.00181415
0.00181527
0.00182078
0.00183408
0.00184854
0.00189399
0.00190299
0.00183387
0.00172086
0.00158958
0.00147717
0.00139966
0.00128695
0.00112951
0.000972642
0.00179979
0.00180615
0.00181111
0.00181268
0.00180862
0.00181084
0.00181325
0.00181473
0.00181281
0.00181527
0.00182125
0.00183536
0.00184776
0.00189333
0.00190354
0.00183655
0.00173206
0.00160381
0.00149595
0.00142368
0.00131106
0.00115802
0.0010071
0.00180022
0.00180497
0.00181184
0.00181128
0.00181017
0.00180967
0.00181119
0.00181395
0.00181414
0.00181494
0.00182044
0.00183452
0.00184645
0.00189238
0.00190563
0.00184237
0.00174991
0.00162951
0.00152682
0.00145745
0.00135008
0.00117556
0.00101733
0.00179443
0.00180825
0.00181402
0.00180987
0.00181213
0.00180974
0.0018109
0.0018129
0.00181202
0.00181507
0.00181833
0.00183345
0.00184586
0.0018919
0.00190673
0.0018451
0.00176199
0.00164461
0.00154412
0.00147934
0.00137128
0.00118659
0.00106326
0.00179718
0.00180543
0.00181357
0.00180783
0.00181282
0.00181046
0.00180935
0.00181275
0.00181302
0.00181457
0.0018163
0.00183247
0.00184466
0.00189068
0.00191011
0.0018534
0.00178132
0.00167459
0.00157555
0.00151338
0.00141432
0.00123192
0.00103273
0.00179645
0.0018082
0.00181061
0.00180822
0.00181266
0.00180905
0.00181045
0.00181426
0.00181352
0.00181438
0.00181649
0.00183267
0.00184412
0.00189188
0.00191128
0.00185406
0.00179096
0.00168913
0.00159114
0.00153337
0.00142863
0.00124188
0.000999638
0.00180116
0.0018089
0.0018102
0.00180678
0.00181111
0.00181137
0.00181402
0.0018139
0.00181392
0.0018156
0.00181849
0.00183245
0.00184306
0.00188859
0.00191519
0.00186488
0.00180999
0.00172276
0.00162331
0.00156923
0.00147733
0.00131495
0.00103663
0.00180342
0.00180836
0.00181089
0.00180768
0.00181115
0.00181312
0.00181429
0.00181549
0.00181439
0.0018149
0.00181969
0.00183213
0.00184187
0.00188454
0.00191821
0.00187388
0.00182989
0.00175557
0.0016555
0.00160498
0.00151994
0.00137695
0.00109542
0.00180372
0.00180749
0.00180966
0.00181145
0.00180718
0.00181157
0.00181253
0.00181447
0.00181363
0.00181594
0.00182003
0.00183142
0.00184092
0.00187965
0.0019215
0.00188681
0.00185061
0.00178726
0.00169353
0.00164356
0.0015657
0.0014372
0.00116386
0.00180613
0.00180517
0.00181023
0.00181409
0.00180444
0.00181059
0.00181458
0.00181094
0.00181191
0.00181489
0.0018202
0.0018307
0.00183952
0.00187372
0.00192401
0.00189658
0.00186761
0.00181609
0.0017306
0.00168433
0.00161345
0.00149056
0.00122894
0.00180526
0.00180043
0.0018041
0.00181053
0.00180478
0.00180862
0.00181493
0.00180787
0.00180907
0.00181646
0.0018204
0.00182972
0.00183832
0.00186809
0.00192354
0.00190601
0.00188184
0.00184334
0.00177285
0.00172708
0.00166611
0.00155348
0.00131815
0.00180179
0.00180102
0.00180636
0.00180207
0.00180497
0.00180942
0.00181599
0.00180911
0.00181056
0.00181751
0.00182086
0.00182934
0.00183676
0.00186209
0.00191926
0.0019127
0.00189748
0.00186775
0.00181487
0.00177454
0.0017225
0.00162584
0.00144008
0.00180286
0.00180686
0.00181326
0.00180214
0.00180296
0.00180507
0.00181724
0.0018128
0.00181459
0.00181788
0.00181999
0.00182771
0.00183478
0.00185639
0.0019103
0.00191964
0.0019146
0.00189202
0.00184827
0.00181485
0.0017806
0.00170572
0.00156377
0.00180286
0.00180673
0.00181671
0.00180898
0.00180267
0.00180779
0.00181392
0.00181375
0.00181632
0.00181798
0.00181897
0.00182605
0.00183255
0.00185064
0.00189741
0.00192376
0.00192735
0.0019122
0.00188128
0.00185704
0.00183399
0.00177798
0.00168012
0.00180252
0.00180724
0.00181637
0.00181169
0.001803
0.00181623
0.00181289
0.00181329
0.00181494
0.00181507
0.00181748
0.00182443
0.00183077
0.00184571
0.00188371
0.00192018
0.00193395
0.0019305
0.00190836
0.00189771
0.00188293
0.001849
0.00177554
0.00180264
0.00180522
0.00181381
0.00181442
0.00180719
0.00181192
0.00181151
0.00181263
0.00181236
0.00181367
0.00181668
0.00182304
0.00182877
0.00184073
0.00186967
0.00191206
0.00193067
0.00194375
0.00193382
0.00192641
0.00192181
0.00190756
0.00187027
0.00179876
0.0018044
0.00181215
0.0018163
0.00180789
0.00181075
0.00181074
0.00181166
0.00181105
0.00181255
0.00181566
0.00182134
0.00182679
0.00183641
0.00185847
0.00189782
0.00192323
0.00193948
0.00194458
0.00194501
0.00194918
0.00194901
0.0019331
0.0017973
0.00180765
0.00181155
0.00181375
0.00180822
0.00181015
0.00180957
0.00181067
0.00181097
0.0018126
0.0018149
0.00181961
0.00182427
0.00183145
0.0018486
0.00188191
0.00191142
0.00193006
0.00193908
0.00195199
0.00196317
0.00197174
0.00197752
0.00179685
0.00180985
0.00181078
0.00181062
0.00180793
0.00180985
0.00180939
0.00180949
0.00181008
0.00181186
0.00181401
0.00181797
0.00182223
0.00182759
0.00183995
0.00186502
0.00189751
0.00191625
0.00192833
0.00193856
0.00195877
0.00197802
0.00199485
0.00179917
0.0018137
0.00180989
0.00180836
0.00180774
0.00180922
0.00180843
0.00180824
0.00180995
0.00181173
0.00181312
0.00181632
0.00181955
0.00182382
0.00183192
0.00184994
0.00188031
0.00190212
0.00191605
0.00192505
0.00193849
0.00196087
0.00199828
0.00180441
0.001818
0.00180845
0.00180666
0.00180664
0.00180842
0.00180798
0.00180686
0.00180854
0.00181057
0.00181217
0.00181513
0.00181769
0.00182165
0.00182624
0.00183798
0.00185968
0.00188217
0.00189816
0.00190751
0.00191603
0.00193027
0.00195395
0.00180988
0.00181643
0.00180635
0.00180501
0.00180515
0.00180661
0.00180627
0.00180547
0.00180781
0.00180975
0.00181073
0.00181317
0.00181514
0.00181815
0.00182233
0.00183
0.00184471
0.00186345
0.00188099
0.00189211
0.00189921
0.00190752
0.00192207
0.00180805
0.00181147
0.00180323
0.00180292
0.00180255
0.00180419
0.00180444
0.00180389
0.00180596
0.00180787
0.00180928
0.0018114
0.00181346
0.0018158
0.00181796
0.00182294
0.00183179
0.0018445
0.00185871
0.00187136
0.00187989
0.00188484
0.0018941
0.00179997
0.00180586
0.00179946
0.00180039
0.00179954
0.00180056
0.00180161
0.00180184
0.00180461
0.00180663
0.00180716
0.00180853
0.00181065
0.0018128
0.0018154
0.00181894
0.00182463
0.00183268
0.00184292
0.00185292
0.00186216
0.00186674
0.00187203
0.00178819
0.00180053
0.00179514
0.00179789
0.00179629
0.00179699
0.00179859
0.0017996
0.00180185
0.00180376
0.00180511
0.00180604
0.00180724
0.00180931
0.00181052