/*--------------------------------*- C++ -*----------------------------------*\
  =========                 |
  \\      /  F ield         | OpenFOAM: The Open Source CFD Toolbox
   \\    /   O peration     | Website:  https://openfoam.org
    \\  /    A nd           | Version:  7
     \\/     M anipulation  |
\*---------------------------------------------------------------------------*/
FoamFile
{
    version     2.0;
    format      ascii;
    class       volScalarField;
    location    "50";
    object      omega;
}
// * * * * * * * * * * * * * * * * * * * * * * * * * * * * * * * * * * * * * //

dimensions      [0 0 -1 0 0 0 0];

internalField   nonuniform List<scalar> 
12842
(
3.14827
2.8513
2.66299
2.53485
2.44129
2.37607
2.3302
2.29693
2.27354
2.25628
2.24247
2.23309
2.22568
2.22444
2.22696
2.23555
2.24971
2.28128
2.32369
2.37646
2.45294
2.50029
2.57104
3.14117
2.8321
2.64451
2.5281
2.43882
2.37533
2.3291
2.29644
2.27299
2.25497
2.24153
2.23283
2.22586
2.22548
2.22864
2.23767
2.25411
2.28505
2.33166
2.38416
2.46106
2.50555
2.57147
3.12389
2.81675
2.6186
2.4955
2.41786
2.3636
2.32323
2.29334
2.27134
2.2537
2.24047
2.23217
2.22551
2.22616
2.22993
2.23971
2.25823
2.29022
2.3413
2.3961
2.47518
2.52195
2.5828
3.10449
2.78778
2.60591
2.48663
2.39881
2.34515
2.3064
2.28357
2.26554
2.25121
2.23923
2.23167
2.22538
2.22653
2.23119
2.24203
2.26219
2.29533
2.34922
2.40147
2.48064
2.52432
2.59419
3.08298
2.75903
2.56951
2.46263
2.38947
2.33266
2.29333
2.27098
2.25643
2.24467
2.23574
2.22985
2.22477
2.22651
2.23257
2.2452
2.26755
2.30381
2.36359
2.41677
2.49595
2.54182
2.5917
3.06211
2.73718
2.55633
2.44011
2.36943
2.32356
2.28601
2.26092
2.24754
2.2392
2.23192
2.22835
2.2243
2.22647
2.23306
2.24719
2.27157
2.30956
2.37288
2.4267
2.50188
2.5538
2.59893
3.03688
2.70213
2.52573
2.42432
2.35468
2.30933
2.27755
2.25498
2.24103
2.23428
2.2271
2.22519
2.22328
2.22619
2.23456
2.24975
2.27596
2.31783
2.38656
2.44352
2.51644
2.58231
2.61707
3.02015
2.68699
2.51258
2.40531
2.34249
2.30026
2.27079
2.24894
2.23611
2.231
2.22416
2.22292
2.22208
2.22534
2.23466
2.25138
2.27961
2.32355
2.39291
2.4582
2.52414
2.59771
2.65723
2.9915
2.65528
2.48955
2.39043
2.32744
2.29071
2.26237
2.24333
2.2317
2.22857
2.2229
2.22066
2.22056
2.2241
2.23467
2.25232
2.28211
2.32736
2.39566
2.46137
2.54573
2.61238
2.70007
2.97911
2.64134
2.47418
2.3779
2.3197
2.28409
2.25922
2.24055
2.22789
2.22584
2.22122
2.21895
2.21939
2.22308
2.23466
2.25385
2.28544
2.33074
2.39903
2.47039
2.56285
2.65206
2.77177
2.94433
2.61012
2.45355
2.36228
2.30643
2.27546
2.25305
2.23722
2.2249
2.22324
2.21848
2.2171
2.21813
2.22222
2.23429
2.25527
2.2931
2.33456
2.40441
2.48988
2.60629
2.70143
2.854
2.93152
2.59684
2.43932
2.35402
2.30035
2.27003
2.25022
2.23583
2.22204
2.21959
2.2153
2.21498
2.21637
2.2209
2.23557
2.25625
2.29532
2.33894
2.42207
2.533
2.66348
2.78142
2.95891
2.89835
2.57023
2.42181
2.33963
2.28899
2.26177
2.2446
2.23348
2.22014
2.21523
2.21152
2.21192
2.21401
2.22074
2.23599
2.25736
2.29928
2.34777
2.4538
2.59379
2.74316
2.88147
3.07453
2.88609
2.55687
2.40876
2.33213
2.28337
2.25675
2.24203
2.23187
2.21812
2.21081
2.20723
2.20813
2.21119
2.21991
2.23596
2.2603
2.30197
2.37265
2.50667
2.67562
2.84119
3.00234
3.20837
2.85565
2.53608
2.39562
2.32046
2.27387
2.24927
2.23706
2.22842
2.21575
2.20548
2.20235
2.20386
2.20855
2.21995
2.23699
2.26524
2.31909
2.41679
2.5739
2.77272
2.95657
3.14162
3.35214
2.84466
2.52202
2.38354
2.31299
2.26901
2.2451
2.23463
2.22558
2.21247
2.20115
2.19753
2.19986
2.20672
2.22018
2.24703
2.28636
2.35796
2.48586
2.65831
2.88376
3.08477
3.29113
3.51407
2.81702
2.5074
2.37379
2.30315
2.26107
2.23947
2.22985
2.21864
2.20765
2.19571
2.19333
2.19665
2.20584
2.2262
2.2721
2.32578
2.41946
2.56388
2.75297
3.00675
3.2286
3.449
3.67647
2.80779
2.4938
2.36374
2.29689
2.25691
2.2369
2.22726
2.21343
2.20309
2.19298
2.18988
2.19461
2.206
2.24653
2.31314
2.38277
2.4958
2.66196
2.859
3.13364
3.37615
3.6199
3.85739
2.78289
2.48308
2.35572
2.28781
2.25105
2.23241
2.22177
2.20494
2.19733
2.18953
2.18743
2.19387
2.21323
2.28475
2.36762
2.45183
2.58278
2.75741
2.97197
3.27105
3.53524
3.78741
4.04111
2.7758
2.47159
2.34874
2.28324
2.24669
2.22994
2.2187
2.20086
2.19507
2.19062
2.18792
2.19737
2.23911
2.33715
2.43295
2.53338
2.67805
2.86795
3.08665
3.40443
3.69275
3.96876
4.2279
2.75302
2.46237
2.34187
2.27533
2.24304
2.22471
2.21218
2.19543
2.19152
2.18868
2.18926
2.21185
2.28241
2.40251
2.50742
2.61844
2.77222
2.96896
3.20761
3.54452
3.85568
4.14983
4.4316
2.74891
2.45259
2.33679
2.27121
2.23706
2.22159
2.20962
2.19466
2.19406
2.20034
2.2112
2.25178
2.34346
2.47557
2.58526
2.7089
2.87149
3.07991
3.32163
3.67286
4.02011
4.33027
4.62545
2.7261
2.44399
2.33321
2.26431
2.23364
2.21434
2.20435
2.19166
2.19581
2.21418
2.2388
2.29977
2.41216
2.55236
2.66674
2.79663
2.96197
3.17707
3.43969
3.80519
4.18194
4.52645
4.84258
2.72144
2.43727
2.32487
2.2602
2.22799
2.21081
2.20395
2.19593
2.21254
2.25349
2.29801
2.37723
2.49861
2.6373
2.7495
2.88571
3.05664
3.28194
3.54881
3.92567
4.33102
4.7073
5.05505
2.71535
2.43049
2.32267
2.25442
2.224
2.20808
2.20463
2.21145
2.24811
2.304
2.36477
2.45649
2.58142
2.716
2.82919
2.96901
3.14121
3.37268
3.66135
4.05748
4.48457
4.89664
5.27733
2.70684
2.42675
2.32101
2.25062
2.21961
2.20542
2.21021
2.24718
2.29764
2.3651
2.43948
2.5399
2.66351
2.79263
2.9038
3.04674
3.22407
3.46739
3.76272
4.16367
4.61075
5.05068
5.45962
2.69914
2.41977
2.32129
2.24613
2.21596
2.20556
2.2344
2.29485
2.35677
2.43088
2.5201
2.624
2.74236
2.8631
2.97404
3.11914
3.29838
3.54357
3.85663
4.27853
4.7418
5.20842
5.63969
2.69199
2.41615
2.32054
2.24206
2.21632
2.21266
2.27385
2.35652
2.42159
2.50216
2.60234
2.7052
2.8159
2.92943
3.03875
3.18375
3.36596
3.62415
3.94515
4.36551
4.84351
5.33546
5.79205
2.68361
2.40833
2.32078
2.23821
2.21946
2.23451
2.32963
2.42117
2.49119
2.57474
2.68339
2.78134
2.88331
2.98787
3.09591
3.24198
3.42815
3.68489
4.02081
4.46321
4.9566
5.46755
5.93413
2.67668
2.40382
2.32344
2.24048
2.23732
2.27265
2.39223
2.49251
2.56108
2.64666
2.76083
2.8512
2.94386
3.04157
3.14886
3.29355
3.48108
3.7512
4.09568
4.53408
5.03903
5.5707
6.05928
2.66901
2.39403
2.32298
2.24542
2.26611
2.32295
2.46012
2.561
2.63061
2.71665
2.83124
2.91362
2.99771
3.08802
3.19306
3.33763
3.53008
3.79863
4.15626
4.61625
5.13545
5.67978
6.16707
2.66115
2.38778
2.3189
2.26175
2.30704
2.38461
2.52827
2.62989
2.69704
2.78209
2.89538
2.96894
3.04494
3.1295
3.23407
3.37753
3.57194
3.85209
4.21799
4.674
5.20255
5.76266
6.27098
2.65514
2.37839
2.31433
2.28883
2.35676
2.45022
2.5929
2.69309
2.75784
2.84185
2.94947
3.01665
3.08602
3.1655
3.26744
3.40991
3.6074
3.88878
4.26603
4.74252
5.28372
5.85276
6.35656
2.64507
2.37393
2.31508
2.31903
2.41046
2.51923
2.65438
2.75313
2.81532
2.89607
2.99665
3.05782
3.12148
3.19652
3.29748
3.4394
3.64191
3.9316
4.31662
4.78996
5.33811
5.91863
6.44748
2.63945
2.36705
2.31809
2.36144
2.46705
2.58549
2.70855
2.80739
2.86244
2.9424
3.03591
3.09215
3.15181
3.22386
3.32245
3.4638
3.66609
3.96009
4.35393
4.84607
5.4052
5.99863
6.53098
2.6285
2.36548
2.33269
2.40207
2.52137
2.6477
2.75796
2.85689
2.909
2.9832
3.06871
3.12158
3.17757
3.24656
3.34353
3.4845
3.69475
3.99407
4.39613
4.88751
5.454
6.05556
6.60764
2.61974
2.36682
2.35629
2.4519
2.57445
2.70373
2.80039
2.90088
2.94368
3.01941
3.0967
3.14539
3.19959
3.26691
3.36221
3.50371
3.71196
4.01728
4.42487
4.93113
5.50388
6.12284
6.68649
2.61039
2.37736
2.38927
2.49971
2.62158
2.75336
2.83819
2.93948
2.98027
3.04939
3.11807
3.16605
3.21774
3.2833
3.37656
3.51811
3.735
4.04265
4.46058
4.96815
5.55543
6.18127
6.7512
2.60256
2.39664
2.42727
2.55053
2.66822
2.79562
2.87145
2.97253
3.00921
3.07812
3.13577
3.18236
3.23374
3.29816
3.39097
3.53375
3.74877
4.06398
4.48253
5.00104
5.58868
6.23163
6.81486
2.59358
2.42421
2.47092
2.60066
2.71076
2.83308
2.90224
3.00182
3.03827
3.10048
3.14949
3.19676
3.24638
3.31009
3.40045
3.54398
3.76633
4.08023
4.51129
5.02998
5.64268
6.29236
6.88728
2.59213
2.4563
2.51616
2.64966
2.75377
2.86513
2.93051
3.02725
3.06293
3.11864
3.15948
3.20767
3.25805
3.32052
3.41207
3.55773
3.77904
4.10167
4.52962
5.05622
5.6695
6.34429
6.95176
2.59164
2.49412
2.56416
2.6977
2.79419
2.89577
2.95943
3.05077
3.08469
3.13394
3.16941
3.21779
3.26732
3.32985
3.41905
3.56506
3.79092
4.11242
4.54995
5.0797
5.72029
6.40844
7.03448
2.6004
2.53526
2.61351
2.74411
2.83366
2.9237
2.98651
3.06944
3.09867
3.14384
3.17672
3.22523
3.27556
3.33656
3.42782
3.57796
3.80559
4.13217
4.57028
5.09942
5.75255
6.48249
7.11406
2.62086
2.57929
2.66371
2.78605
2.87006
2.95343
3.01412
3.08603
3.11073
3.15186
3.18422
3.23295
3.28314
3.3446
3.43525
3.58418
3.81331
4.14462
4.58343
5.12836
5.80435
6.55507
7.18949
2.64338
2.62756
2.71345
2.82687
2.90371
2.98016
3.03534
3.09773
3.12097
3.15546
3.18878
3.23863
3.28859
3.3489
3.44098
3.5968
3.82937
4.16246
4.60957
5.1524
5.84439
6.62644
7.25129
2.67356
2.67466
2.76483
2.86327
2.93291
3.00711
3.05481
3.10661
3.12949
3.16008
3.19409
3.245
3.29526
3.35581
3.44999
3.60355
3.83822
4.18376
4.62784
5.18102
5.90831
6.70379
7.33039
2.69903
2.72298
2.8078
2.89757
2.95982
3.02936
3.06881
3.11408
3.13485
3.16421
3.19949
3.24935
3.29891
3.35928
3.45479
3.61718
3.85626
4.19919
4.659
5.22706
5.95272
6.76963
7.38076
2.72481
2.76442
2.85139
2.92686
2.98164
3.05073
3.08212
3.11892
3.13895
3.16412
3.20234
3.25452
3.30466
3.36552
3.46455
3.62669
3.86975
4.23352
4.695
5.26247
6.04539
6.86213
7.48702
2.74656
2.80486
2.88485
2.95276
3.00323
3.06707
3.09231
3.12486
3.14178
3.16485
3.20325
3.25789
3.30777
3.36872
3.47028
3.63962
3.88853
4.25688
4.72558
5.32877
6.13179
6.95876
7.59164
2.76862
2.83706
2.91582
2.97725
3.02172
3.08443
3.10424
3.13119
3.14555
3.16834
3.20684
3.26246
3.31273
3.37465
3.48161
3.65803
3.91697
4.30247
4.79073
5.40675
6.22441
7.15541
7.80413
2.79219
2.86651
2.94272
2.99711
3.03821
3.09434
3.11314
3.13698
3.15022
3.17233
3.21034
3.2656
3.31523
3.3778
3.48779
3.6681
3.93274
4.32991
4.83181
5.46398
6.41235
7.40962
8.0499
2.81153
2.88654
2.96623
3.01588
3.0533
3.10465
3.12315
3.14351
3.15671
3.17782
3.21397
3.2695
3.31986
3.38375
3.50057
3.6938
3.98269
4.40096
4.94705
5.65705
6.59021
7.6447
8.23269
2.8328
2.90471
2.98541
3.03109
3.06563
3.11114
3.13181
3.15063
3.1633
3.18301
3.21744
3.27249
3.32248
3.38714
3.50857
3.71205
4.01063
4.44973
5.02962
5.73886
6.795
7.88371
8.64119
2.85167
2.91786
2.99952
3.04557
3.07803
3.1179
3.1411
3.15799
3.17026
3.1884
3.22161
3.27604
3.3266
3.39382
3.52661
3.74843
4.0847
4.58233
5.20871
6.09646
7.121
8.93327
11.1221
2.87192
2.93223
3.01031
3.05743
3.08851
3.12362
3.1491
3.16428
3.17618
3.19332
3.22624
3.27905
3.32953
3.39907
3.54003
3.7839
4.15577
4.70576
5.47304
6.39676
8.13394
11.9593
17.807
2.89066
2.94701
3.01956
3.0682
3.09957
3.12916
3.15628
3.16973
3.18157
3.19805
3.23095
3.28272
3.33345
3.40769
3.56637
3.85209
4.29138
5.00166
5.91409
7.34619
11.5946
21.6855
34.4066
2.90705
2.96323
3.02793
3.0766
3.10909
3.1346
3.16145
3.17445
3.18585
3.20191
3.23515
3.28563
3.33633
3.41511
3.58882
3.9069
4.42241
5.25513
6.39729
8.7722
14.9491
24.9211
39.8576
2.92078
2.97862
3.03683
3.08409
3.11866
3.13978
3.16608
3.17879
3.19006
3.20585
3.2387
3.28859
3.33903
3.42277
3.61653
3.97357
4.56228
5.55925
6.99119
10.0089
16.5579
26.3648
42.2369
2.93291
2.99491
3.04586
3.09136
3.12769
3.14581
3.17004
3.18369
3.1941
3.20955
3.24237
3.29161
3.34184
3.43131
3.64221
4.03704
4.74316
5.88173
7.66991
11.2678
17.8717
28.4921
45.9515
2.94442
3.01016
3.05602
3.09841
3.13694
3.15189
3.1742
3.1883
3.19861
3.21372
3.24558
3.29441
3.34489
3.44031
3.67142
4.11143
4.89786
6.20124
8.24368
11.8219
17.9587
28.4782
45.927
2.95538
3.02585
3.06591
3.1064
3.14559
3.15895
3.17846
3.19372
3.20308
3.21784
3.24886
3.29761
3.34733
3.44844
3.70026
4.1828
5.0309
6.46077
8.68259
12.0882
18.1556
28.7097
46.2043
2.96712
3.04044
3.07647
3.11439
3.1542
3.16611
3.18315
3.19882
3.20806
3.22235
3.25218
3.2998
3.35068
3.45935
3.72971
4.24606
5.15516
6.64449
8.94418
12.5441
18.6143
29.0114
46.4673
2.98006
3.05561
3.08649
3.12371
3.16242
3.17415
3.18865
3.20459
3.21329
3.22721
3.25538
3.30305
3.35359
3.46857
3.75269
4.29181
5.20663
6.73357
9.02017
12.5509
18.7244
29.7114
46.6529
2.99364
3.07021
3.09699
3.13306
3.17007
3.18235
3.19411
3.21021
3.21842
3.23205
3.25904
3.3049
3.35573
3.47457
3.76897
4.31668
5.24634
6.79657
9.05073
12.6264
18.6603
28.8887
43.5948
3.01007
3.08549
3.10696
3.14348
3.17791
3.19073
3.20081
3.21623
3.22456
3.23757
3.26242
3.30592
3.35592
3.47866
3.78092
4.32665
5.23863
6.76941
9.06915
12.8296
18.802
27.0656
39.0921
3.02532
3.10023
3.1179
3.15363
3.18497
3.19986
3.20722
3.22243
3.22963
3.24273
3.26619
3.30679
3.35636
3.48242
3.78022
4.33026
5.24105
6.76772
9.15141
13.0057
18.3307
24.8548
34.3565
3.0446
3.11563
3.12786
3.16459
3.19218
3.20773
3.21415
3.22832
3.23628
3.24849
3.26983
3.30929
3.35803
3.48216
3.78384
4.3366
5.26644
6.82021
9.18784
12.8587
17.4779
22.5341
29.8388
3.06067
3.12969
3.13955
3.17461
3.19941
3.21691
3.22147
3.23493
3.24146
3.25373
3.27324
3.31176
3.35779
3.48361
3.78601
4.33138
5.25154
6.78192
9.14554
12.8459
16.4444
20.3226
25.8273
3.07971
3.14423
3.14979
3.18533
3.20601
3.22432
3.22809
3.24029
3.24783
3.2598
3.27715
3.31152
3.35777
3.48455
3.78153
4.33827
5.25727
6.79293
9.14589
12.4181
15.2871
18.237
22.4196
3.09762
3.15715
3.16148
3.19584
3.21333
3.23283
3.23602
3.24696
3.25384
3.26545
3.28025
3.31173
3.35797
3.48325
3.78068
4.33461
5.20577
6.68307
8.91369
11.7258
14.0925
16.3712
19.5433
3.11425
3.17218
3.17358
3.20688
3.22128
3.24093
3.24327
3.25263
3.2606
3.27243
3.28465
3.31316
3.35843
3.48298
3.78101
4.32207
5.10687
6.48196
8.53158
10.9171
12.8867
14.6944
17.2274
3.13537
3.18439
3.18508
3.21917
3.22844
3.24954
3.25216
3.25982
3.26655
3.27838
3.2891
3.31288
3.35854
3.48306
3.7721
4.28385
4.98188
6.23435
8.07855
10.0908
11.753
13.2629
15.3352
3.1523
3.19975
3.1991
3.22915
3.23885
3.25764
3.25969
3.26595
3.27331
3.28389
3.29225
3.31297
3.35815
3.4792
3.75237
4.22891
4.84686
5.97389
7.60764
9.32063
10.7164
12.0219
13.8613
3.16966
3.20873
3.21251
3.2395
3.24663
3.25893
3.26659
3.2736
3.27753
3.28531
3.2952
3.31426
3.35823
3.47297
3.72671
4.16532
4.71508
5.72555
7.15604
8.64766
9.82255
11.0051
12.6772
3.18179
3.21594
3.22135
3.246
3.2537
3.26035
3.26974
3.27648
3.28005
3.28624
3.2951
3.31357
3.35692
3.4652
3.69768
4.09868
4.59363
5.50202
6.74503
8.08368
9.08255
10.1765
11.8022
3.19073
3.21484
3.22911
3.24579
3.25329
3.26324
3.27162
3.27888
3.28162
3.28798
3.29672
3.31328
3.35665
3.45727
3.66868
4.03498
4.48847
5.31276
6.38783
7.62586
8.48377
9.52381
11.075
3.19049
3.21619
3.22944
3.24645
3.25468
3.26474
3.27287
3.27906
3.28345
3.28772
3.29585
3.31326
3.35641
3.4492
3.64068
3.97582
4.39906
5.158
6.08539
7.25093
8.01476
9.01282
10.5258
3.19145
3.21667
3.2304
3.24691
3.25817
3.26684
3.27381
3.28084
3.28257
3.28793
3.29589
3.3143
3.3565
3.44206
3.61612
3.92474
4.32654
5.03791
5.8405
6.94282
7.64525
8.60791
10.1248
3.19366
3.22061
3.2316
3.24932
3.25706
3.26571
3.27315
3.28009
3.28329
3.28838
3.297
3.3133
3.35498
3.4352
3.59424
3.88005
4.26585
4.94264
5.64663
6.67985
7.35015
8.2962
9.7272
3.19681
3.219
3.23364
3.24761
3.25756
3.26536
3.27351
3.28137
3.28376
3.28953
3.29578
3.31284
3.35482
3.42962
3.57679
3.84469
4.21812
4.86796
5.50532
6.45459
7.11532
8.04665
9.48727
3.20089
3.21839
3.2344
3.24798
3.25948
3.26688
3.27352
3.2814
3.28352
3.28872
3.29724
3.31262
3.35545
3.4241
3.56145
3.81463
4.17751
4.8022
5.40041
6.25215
6.90681
7.84863
9.25031
3.19808
3.21825
3.23421
3.2478
3.25753
3.26541
3.27374
3.28136
3.28289
3.28861
3.29602
3.31233
3.35499
3.41986
3.55
3.79294
4.14755
4.74625
5.32824
6.07806
6.72561
7.66071
8.97846
3.20073
3.21803
3.23439
3.24788
3.25825
3.26614
3.27475
3.28135
3.28296
3.28861
3.29619
3.31218
3.35343
3.4154
3.53943
3.77283
4.12077
4.69082
5.26354
5.91489
6.55528
7.50899
8.79687
3.19698
3.21689
3.23202
3.2477
3.26062
3.26392
3.27277
3.28016
3.28095
3.2892
3.29677
3.31309
3.35191
3.4123
3.53217
3.75914
4.10272
4.64297
5.2099
5.77602
6.4061
7.34851
8.63053
3.19645
3.21672
3.2317
3.24769
3.25884
3.26552
3.27253
3.28016
3.28072
3.28734
3.29649
3.3132
3.34976
3.40867
3.52481
3.74359
4.08332
4.59186
5.14162
5.63581
6.25091
7.19526
8.44993
3.19543
3.21891
3.23147
3.24819
3.25987
3.26358
3.27295
3.27963
3.28085
3.28706
3.29649
3.31296
3.34805
3.4065
3.52041
3.73374
4.07006
4.5498
5.08021
5.51926
6.11715
7.03176
8.2676
3.19472
3.21551
3.23353
3.24739
3.25723
3.26267
3.27048
3.27708
3.28007
3.28762
3.29467
3.31223
3.34575
3.4033
3.51491
3.71943
4.04943
4.50101
4.9958
5.38911
5.96421
6.89659
8.08473
3.19449
3.21587
3.23361
3.24681
3.25769
3.26274
3.27004
3.2767
3.27954
3.28754
3.29351
3.31123
3.34409
3.40159
3.51197
3.71094
4.03291
4.46268
4.92765
5.28488
5.83082
6.74565
7.88284
3.19247
3.21425
3.23374
3.24537
3.25722
3.26203
3.26886
3.27564
3.27965
3.2859
3.29267
3.31015
3.34176
3.39823
3.50682
3.69645
4.00515
4.41093
4.83278
5.15752
5.66719
6.55876
7.7006
3.18942
3.21311
3.22916
3.24549
3.25903
3.26442
3.26848
3.27543
3.27716
3.28535
3.2933
3.30837
3.34022
3.39631
3.50389
3.68852
3.98251
4.37202
4.76561
5.06199
5.54195
6.30405
7.43327
3.18913
3.21113
3.22794
3.24156
3.25927
3.26178
3.26743
3.27454
3.2772
3.28258
3.2909
3.30747
3.33783
3.39232
3.49777
3.674
3.94658
4.31203
4.66763
4.9382
5.38633
6.16247
7.2329
3.18732
3.20908
3.22657
3.24116
3.25736
3.26292
3.26693
3.27421
3.27647
3.28217
3.29053
3.3046
3.33638
3.39001
3.49405
3.66669
3.91967
4.2712
4.6069
4.85279
5.28166
6.00605
6.97949
3.18674
3.20905
3.22637
3.24236
3.25575
3.26215
3.26813
3.27494
3.27616
3.28325
3.2904
3.30418
3.33388
3.38501
3.48565
3.65168
3.87797
4.20133
4.51033
4.73536
5.12548
5.91466
6.90709
3.18988
3.20323
3.22145
3.24319
3.2529
3.2603
3.26763
3.27523
3.27721
3.28305
3.29131
3.30488
3.3325
3.38237
3.481
3.64436
3.85271
4.16142
4.45875
4.66379
5.04045
5.85368
6.58432
3.18963
3.20653
3.22075
3.24093
3.24973
3.2582
3.26626
3.27412
3.2767
3.28062
3.29109
3.30397
3.32947
3.37633
3.46901
3.62613
3.8086
4.08242
4.36646
4.55501
4.88471
5.62959
6.77381
3.18488
3.20107
3.22246
3.23887
3.24782
3.25603
3.26364
3.26978
3.27575
3.27886
3.28991
3.30295
3.3286
3.37441
3.46672
3.6233
3.7894
4.04833
4.32348
4.49766
4.83105
5.58035
6.99928
3.1809
3.20306
3.21998
3.23542
3.24675
3.25075
3.25855
3.26773
3.27305
3.27625
3.28676
3.29949
3.32476
3.36718
3.45084
3.59969
3.74352
3.96368
4.23642
4.39611
4.67436
5.2612
6.74106
3.17564
3.20118
3.21265
3.23227
3.24067
3.24909
3.25672
3.26203
3.2697
3.27452
3.283
3.29585
3.32075
3.36015
3.43544
3.57567
3.70182
3.88621
4.15324
4.30363
4.54393
5.02613
6.3747
3.17109
3.19587
3.20841
3.22674
3.23911
3.25013
3.257
3.25941
3.26721
3.27208
3.27961
3.29216
3.31572
3.35212
3.41943
3.55069
3.66234
3.81511
4.06091
4.20598
4.41997
4.8178
6.00513
3.1621
3.18975
3.20359
3.21716
3.24085
3.24729
3.24978
3.25909
3.26366
3.27074
3.27588
3.28782
3.31056
3.34402
3.40337
3.52349
3.62459
3.75015
3.96489
4.10342
4.29851
4.6536
5.68299
3.15681
3.18409
3.20214
3.21392
3.23781
3.24308
3.24524
3.25509
3.25915
3.26364
3.27095
3.28288
3.30414
3.33473
3.38689
3.49546
3.58837
3.69021
3.86864
3.99658
4.16785
4.47052
5.27899
3.15427
3.17833
3.19426
3.21484
3.23168
3.23093
3.23755
3.24988
3.25305
3.25716
3.26438
3.2756
3.29714
3.32522
3.37044
3.46509
3.55309
3.63526
3.77758
3.89125
4.03375
4.27828
4.8325
3.14306
3.16926
3.18383
3.20958
3.22354
3.22369
3.22862
3.24378
3.24493
3.24919
3.25793
3.26889
3.28932
3.31444
3.35343
3.43415
3.5174
3.58387
3.69551
3.79035
3.90295
4.088
4.45526
3.13054
3.16357
3.17245
3.19821
3.21417
3.21333
3.22721
3.23723
3.23504
3.24059
3.2513
3.26196
3.28089
3.30318
3.33636
3.40208
3.48195
3.53603
3.62411
3.70202
3.78541
3.9171
4.15739
3.11626
3.15184
3.16281
3.18568
3.20358
3.19806
3.2192
3.2288
3.22775
3.23523
3.24328
3.25279
3.26973
3.28982
3.31805
3.37025
3.44486
3.49068
3.55958
3.62265
3.68448
3.77463
3.93451
3.10479
3.14216
3.15317
3.16971
3.19189
3.19762
3.20953
3.21893
3.22253
3.22751
3.23367
3.24232
3.25741
3.27603
3.29956
3.33925
3.40722
3.44711
3.50784
3.55749
3.59949
3.65725
3.75723
3.0928
3.12643
3.13725
3.15061
3.17694
3.18625
3.196
3.20579
3.21153
3.21605
3.22121
3.22889
3.24234
3.25955
3.27931
3.31004
3.3677
3.40281
3.45195
3.50291
3.53646
3.57119
3.63035
3.07466
3.1025
3.11818
3.13733
3.16022
3.17129
3.18147
3.19139
3.19761
3.20201
3.20742
3.21472
3.22682
3.24297
3.25933
3.28272
3.32884
3.36384
3.3981
3.442
3.48478
3.51062
3.5446
3.05157
3.07617
3.09591
3.12049
3.13904
3.15115
3.16218
3.17267
3.17954
3.18426
3.18949
3.19618
3.20751
3.22224
3.23725
3.25495
3.28928
3.32375
3.35024
3.38114
3.41682
3.46004
3.49059
3.02328
3.04571
3.0734
3.10079
3.11669
3.12983
3.14211
3.15277
3.15925
3.16456
3.17029
3.17698
3.18767
3.20083
3.21501
3.22868
3.25305
3.28447
3.30784
3.32824
3.35455
3.3826
3.43054
2.98714
3.00904
3.04632
3.07434
3.08936
3.10309
3.11598
3.12696
3.13408
3.13963
3.14508
3.1512
3.16192
3.17266
3.18752
3.19876
3.21647
3.24295
3.26593
3.2817
3.30011
3.31857
3.35128
2.94776
2.97996
3.01795
3.04596
3.06122
3.07551
3.08918
3.09994
3.10716
3.11344
3.11935
3.1253
3.13558
3.14466
3.15821
3.16835
3.18175
3.20115
3.22188
3.23693
3.24976
3.261
3.28009
2.91126
2.9483
2.98244
3.01022
3.02598
3.04042
3.05422
3.06474
3.073
3.07965
3.08547
3.09059
3.10069
3.10825
3.12104
3.13164
3.14237
3.15727
3.17443
3.18937
3.20196
3.20991
3.22117
2.87839
2.91518
2.94552
2.97334
2.98977
3.00434
3.01845
3.02881
3.0371
3.0446
3.0519
3.0568
3.06548
3.07259
3.08181
3.09235
3.10233
3.11337
3.12647
3.13898
3.15138
3.15951
3.16935
2.83716
2.87112
2.89928
2.9263
2.94322
2.9576
2.97147
2.98162
2.99078
2.99849
3.00613
3.01111
3.02015
3.02662
3.03478
3.0428
3.05208
3.06106
3.07187
3.08174
3.09262
3.09949
3.10851
2.79268
2.82424
2.85258
2.87844
2.89595
2.91027
2.92409
2.93488
2.9434
2.95151
2.96081
2.96579
2.97367
2.98053
2.98812
2.99538
3.0042
3.01166
3.02006
3.02779
3.03814
3.04447
3.05374
2.73404
2.76443
2.79362
2.81694
2.83476
2.84856
2.86203
2.87297
2.88251
2.88966
2.89879
2.90514
2.91238
2.91762
2.92435
2.93005
2.93726
2.94488
2.9532
2.95801
2.96635
2.97094
2.97862
2.67387
2.70483
2.73589
2.7569
2.77478
2.78824
2.80146
2.81347
2.8225
2.83013
2.8387
2.84539
2.8535
2.85918
2.86528
2.87026
2.87597
2.88058
2.88905
2.89489
2.90317
2.90772
2.91523
2.59777
2.62976
2.66145
2.67964
2.69695
2.70902
2.72172
2.73347
2.7439
2.7511
2.75897
2.76466
2.77134
2.77624
2.78174
2.78618
2.79177
2.79503
2.80028
2.80393
2.81111
2.81566
2.82278
2.52612
2.55909
2.5917
2.60857
2.62471
2.6362
2.64812
2.65983
2.66954
2.67738
2.68629
2.69258
2.69995
2.705
2.70995
2.71312
2.71861
2.72193
2.72855
2.73193
2.73801
2.74159
2.74832
2.43506
2.46748
2.49858
2.51411
2.52872
2.5378
2.54901
2.55969
2.56916
2.57551
2.58207
2.58845
2.59439
2.59969
2.6054
2.60807
2.6125
2.61462
2.61877
2.62197
2.62717
2.63018
2.63699
2.35637
2.38709
2.41742
2.43301
2.44619
2.45533
2.46475
2.47468
2.484
2.49067
2.49693
2.50237
2.50878
2.51357
2.51925
2.52351
2.52799
2.53191
2.53609
2.54002
2.54467
2.54757
2.55399
2.25008
2.27617
2.30221
2.31681
2.32704
2.33414
2.34356
2.35174
2.35837
2.36414
2.36824
2.37169
2.37656
2.38048
2.3848
2.38767
2.39186
2.39465
2.39951
2.40237
2.40737
2.40909
2.41346
2.16838
2.19012
2.21429
2.22908
2.2383
2.2439
2.25108
2.26119
2.26902
2.27491
2.28022
2.28316
2.28667
2.29034
2.29461
2.29725
2.30107
2.30403
2.30915
2.31267
2.31819
2.32059
2.32374
2.04195
2.05485
2.07188
2.0835
2.08969
2.09252
2.09554
2.09992
2.10544
2.1098
2.11454
2.11726
2.12044
2.12239
2.12548
2.12745
2.13113
2.13291
2.13647
2.14068
2.14389
2.14527
2.14889
1.96975
1.97835
1.99128
2.0014
2.00691
2.00946
2.01159
2.01467
2.01907
2.02311
2.02784
2.03106
2.03487
2.03696
2.04018
2.04232
2.04599
2.04787
2.05167
2.05464
2.05684
2.05842
2.06165
1.79089
1.78968
1.79355
1.79682
1.79836
1.7979
1.79609
1.79412
1.79272
1.79284
1.79373
1.79492
1.79821
1.79905
1.80115
1.80334
1.80654
1.80874
1.81044
1.81139
1.8123
1.81363
1.81706
3.05778
2.73268
2.54723
2.44157
2.36882
2.3204
2.28463
2.26194
2.24171
2.23094
2.22113
2.21622
2.21384
2.21552
2.22066
2.23138
2.25009
2.28035
2.32605
2.39036
2.46147
2.51876
2.60931
3.07355
2.74356
2.55773
2.45098
2.37558
2.32924
2.29279
2.268
2.24739
2.23475
2.22399
2.21966
2.21666
2.21805
2.22254
2.2324
2.25044
2.27958
2.32634
2.38087
2.45657
2.51893
2.58808
3.08863
2.7692
2.5883
2.47438
2.39289
2.33985
2.29818
2.27124
2.25075
2.23751
2.22806
2.22265
2.2183
2.21939
2.22358
2.23304
2.2501
2.27873
2.32373
2.38003
2.45421
2.5148
2.57799
3.10824
2.78761
2.60277
2.48394
2.40021
2.34833
2.3079
2.2789
2.25921
2.24505
2.23396
2.2263
2.22127
2.22176
2.22493
2.23348
2.24961
2.27804
2.32327
2.37551
2.45486
2.49966
2.56517
3.11882
2.81681
2.63225
2.50609
2.4188
2.35957
2.31326
2.28329
2.26408
2.24961
2.23714
2.22976
2.22343
2.22264
2.22543
2.23347
2.24862
2.27834
2.32327
2.37766
2.45638
2.50199
2.56799
3.13859
2.83861
2.6408
2.51475
2.42421
2.36508
2.3242
2.29613
2.27354
2.25573
2.2413
2.23202
2.22445
2.22313
2.22559
2.23393
2.24833
2.2817
2.32523
2.37989
2.45853
2.50532
2.57345
3.14918
2.84819
2.65938
2.53108
2.44337
2.38139
2.33597
2.30163
2.27607
2.25697
2.24191
2.23263
2.22464
2.2234
2.22552
2.23519
2.24927
2.28649
2.32806
2.38486
2.46185
2.51204
2.58207
3.15169
2.85803
2.66526
2.53656
2.44545
2.38178
2.33577
2.30129
2.27554
2.25691
2.2418
2.23267
2.22438
2.22341
2.22542
2.2355
2.24918
2.28323
2.32363
2.37769
2.45627
2.50611
2.57785
2.84388
2.52683
2.36929
2.31059
2.27169
2.24233
2.22714
2.21322
2.20119
2.19986
2.21471
2.26394
2.34005
2.41525
2.49042
2.5922
2.71475
2.8757
3.05051
3.27
3.53287
3.79121
4.04858
2.85893
2.53356
2.37818
2.31592
2.27482
2.2459
2.22988
2.21673
2.20481
2.19685
2.19879
2.22663
2.28768
2.3502
2.41533
2.5074
2.62689
2.78475
2.96335
3.17486
3.44957
3.69182
3.95901
2.86278
2.53986
2.38559
2.32172
2.27977
2.25052
2.23267
2.21868
2.20866
2.1999
2.20006
2.21006
2.25436
2.30343
2.35533
2.4331
2.54508
2.69256
2.87395
3.07905
3.35751
3.5908
3.85163
2.87934
2.54872
2.39622
2.32597
2.28225
2.25623
2.23675
2.22263
2.21193
2.20297
2.19934
2.20087
2.22823
2.26357
2.3029
2.36659
2.46673
2.60284
2.78358
2.97927
3.26287
3.48049
3.74346
2.88449
2.55663
2.40443
2.33363
2.28714
2.25903
2.23907
2.22584
2.21653
2.20758
2.20252
2.20095
2.21513
2.2372
2.26411
2.31194
2.39646
2.51721
2.69183
2.87841
3.15931
3.36649
3.61251
2.90294
2.56786
2.41322
2.33788
2.28969
2.26357
2.24209
2.22828
2.21869
2.21096
2.20473
2.20157
2.20686
2.21911
2.23633
2.27166
2.33918
2.44284
2.60655
2.78082
3.05765
3.24268
3.49098
2.9093
2.57857
2.42451
2.34594
2.29552
2.2683
2.24602
2.23252
2.22224
2.2152
2.2093
2.20411
2.20478
2.20972
2.22028
2.24474
2.29549
2.38121
2.52504
2.68666
2.95065
3.11938
3.36858
2.92967
2.5922
2.43252
2.35254
2.29877
2.27124
2.24879
2.23478
2.22409
2.21779
2.21139
2.20615
2.20455
2.20694
2.21466
2.23208
2.26908
2.33732
2.4582
2.60468
2.8478
3.00501
3.24633
2.93715
2.60553
2.44473
2.35983
2.30577
2.27695
2.25334
2.23885
2.22555
2.21932
2.21395
2.20761
2.2047
2.20706
2.21409
2.22863
2.25606
2.30846
2.40428
2.53327
2.75085
2.90154
3.13901
2.95969
2.62235
2.45606
2.36985
2.31148
2.2816
2.25764
2.24223
2.22758
2.22121
2.215
2.20929
2.20654
2.20837
2.21457
2.22825
2.25291
2.2961
2.37105
2.48263
2.6717
2.8118
3.01333
2.96819
2.63624
2.46736
2.37687
2.31886
2.28643
2.26126
2.24467
2.22934
2.22216
2.21574
2.21058
2.2079
2.20983
2.2156
2.22843
2.25113
2.28968
2.35134
2.44556
2.61021
2.72692
2.93227
2.99315
2.65792
2.48414
2.3902
2.32801
2.29379
2.26669
2.24887
2.23111
2.2238
2.21648
2.21134
2.209
2.21105
2.21682
2.22872
2.25061
2.28711
2.34427
2.42721
2.56078
2.67259
2.82904
3.00207
2.6697
2.49435
2.3977
2.33526
2.29871
2.27009
2.25083
2.23367
2.22511
2.2169
2.21255
2.21043
2.21239
2.21794
2.22963
2.25044
2.28439
2.33758
2.41275
2.5341
2.61084
2.74764
3.02704
2.69643
2.51486
2.41402
2.34756
2.30639
2.27508
2.25497
2.23565
2.22668
2.21781
2.21323
2.21122
2.21323
2.21885
2.23021
2.25079
2.28284
2.33272
2.40277
2.49775
2.57232
2.69585
3.03886
2.70755
2.52443
2.42211
2.35395
2.31258
2.28005
2.25821
2.23898
2.22894
2.21892
2.21466
2.21268
2.21445
2.21966
2.2307
2.25076
2.28155
2.32797
2.39274
2.47576
2.53303
2.62923
2.81394
2.84126
2.91468
2.96167
3.04072
3.08147
3.11582
3.14431
3.15782
3.17683
3.18746
3.20481
3.21185
3.24813
3.2889
3.36329
3.45828
3.60499
3.7985
4.07307
4.31812
4.6708
5.0687
2.79494
2.79556
2.86924
2.92829
3.02338
3.06123
3.10292
3.13613
3.15324
3.17583
3.18818
3.20389
3.20768
3.24858
3.28699
3.3612
3.45308
3.59641
3.78436
4.06049
4.30301
4.64161
5.04359
2.76319
2.76097
2.82925
2.89425
2.99213
3.03611
3.07739
3.12511
3.15154
3.17056
3.18279
3.20008
3.2056
3.24554
3.28573
3.35842
3.44904
3.589
3.77805
4.04228
4.29693
4.61115
4.99534
2.74476
2.71326
2.78428
2.8567
2.96473
3.00875
3.05606
3.10368
3.13946
3.16691
3.18319
3.19746
3.20133
3.24325
3.2853
3.35557
3.44464
3.58201
3.76604
4.03192
4.28897
4.59767
4.9769
2.73037
2.66928
2.7315
2.81534
2.92941
2.97773
3.02574
3.08543
3.13035
3.15946
3.17795
3.19367
3.19881
3.24043
3.285
3.35202
3.44072
3.57583
3.76043
4.0144
4.28216
4.5755
4.94383
2.71862
2.62377
2.68732
2.77142
2.89226
2.94484
2.99654
3.05708
3.11122
3.14861
3.17864
3.19083
3.19488
3.23695
3.28276
3.34842
3.43596
3.56931
3.75129
4.00605
4.27648
4.56212
4.91749
2.71825
2.57704
2.63289
2.72467
2.84758
2.91013
2.96069
3.03056
3.08876
3.13451
3.16708
3.18754
3.19178
3.23311
3.27989
3.34299
3.43086
3.56305
3.74265
3.99001
4.26671
4.55067
4.90034
2.72472
2.53891
2.58135
2.67162
2.79981
2.86634
2.92386
2.99881
3.06104
3.11719
3.15709
3.1818
3.19049
3.22781
3.27301
3.33762
3.42462
3.55627
3.7348
3.9819
4.25615
4.53465
4.8713
2.73275
2.49946
2.5356
2.61952
2.74087
2.82783
2.88079
2.96321
3.03366
3.09174
3.14139
3.16887
3.18982
3.22248
3.26629
3.32996
3.41687
3.54772
3.72221
3.96578
4.24225
4.52596
4.85732
2.74046
2.47532
2.48488
2.56097
2.68448
2.77433
2.83495
2.92114
2.99649
3.06673
3.12267
3.15623
3.18271
3.2172
3.25604
3.32131
3.40799
3.53903
3.71279
3.95549
4.22543
4.50729
4.82694
2.75315
2.45204
2.44532
2.50574
2.61489
2.72799
2.7843
2.87611
2.95876
3.03434
3.09589
3.13685
3.17411
3.20644
3.24723
3.31046
3.39668
3.52727
3.69746
3.93739
4.20731
4.49555
4.81286
2.76198
2.44519
2.40737
2.44715
2.55026
2.6669
2.72732
2.82095
2.91268
2.9956
3.06553
3.11314