/*--------------------------------*- C++ -*----------------------------------*\
  =========                 |
  \\      /  F ield         | OpenFOAM: The Open Source CFD Toolbox
   \\    /   O peration     | Website:  https://openfoam.org
    \\  /    A nd           | Version:  7
     \\/     M anipulation  |
\*---------------------------------------------------------------------------*/
FoamFile
{
    version     2.0;
    format      ascii;
    class       volScalarField;
    location    "50";
    object      p;
}
// * * * * * * * * * * * * * * * * * * * * * * * * * * * * * * * * * * * * * //

dimensions      [0 2 -2 0 0 0 0];

internalField   nonuniform List<scalar> 
12842
(
-0.108254
-0.113198
-0.118243
-0.128501
-0.143606
-0.160752
-0.173923
-0.172901
-0.142863
-0.0637371
0.0903143
0.350428
0.750774
1.32417
2.09555
3.074
4.24629
5.57529
7.00365
8.4618
9.88137
11.2011
12.3872
-0.122289
-0.132932
-0.145993
-0.169404
-0.206201
-0.256131
-0.315549
-0.376766
-0.427301
-0.448802
-0.41598
-0.296479
-0.0525652
0.354836
0.959331
1.78008
2.8139
4.0318
5.38112
6.79246
8.19436
9.51752
10.7242
-0.1314
-0.147706
-0.168669
-0.205146
-0.263175
-0.344888
-0.448849
-0.56976
-0.697465
-0.815391
-0.898978
-0.914994
-0.82265
-0.577287
-0.137571
0.524514
1.41439
2.50979
3.762
5.10169
6.45604
7.74865
8.94167
-0.137219
-0.158865
-0.187513
-0.236567
-0.315044
-0.427152
-0.573499
-0.751167
-0.952387
-1.16255
-1.35823
-1.50597
-1.56275
-1.47916
-1.20699
-0.710162
0.0246709
0.98161
2.11615
3.35993
4.64039
5.87577
7.03106
-0.140788
-0.166776
-0.202996
-0.263323
-0.360843
-0.501157
-0.686844
-0.917501
-1.18793
-1.48587
-1.78978
-2.06707
-2.27361
-2.35621
-2.26041
-1.94225
-1.38007
-0.582542
0.411488
1.5361
2.72103
3.87938
4.98131
-0.1427
-0.17158
-0.215224
-0.284541
-0.399092
-0.564313
-0.784987
-1.06341
-1.39715
-1.77684
-2.1837
-2.58743
-2.9441
-3.1978
-3.28825
-3.16351
-2.79277
-2.17627
-1.34544
-0.362371
0.706332
1.76885
2.80144
-0.143306
-0.173662
-0.224183
-0.299494
-0.428706
-0.614468
-0.864649
-1.1843
-1.57385
-2.02737
-2.52995
-3.05505
-3.56041
-3.98846
-4.2736
-4.35578
-4.19428
-3.77995
-3.13527
-2.31766
-1.38825
-0.444248
0.500061
-0.14286
-0.173535
-0.229884
-0.308167
-0.44954
-0.65074
-0.924385
-1.27801
-1.71503
-2.23353
-2.82347
-3.46355
-4.11439
-4.71786
-5.20347
-5.50326
-5.56619
-5.37334
-4.93701
-4.30957
-3.54434
-2.74433
-1.909
-0.141441
-0.171677
-0.231907
-0.310389
-0.460593
-0.670852
-0.96012
-1.33717
-1.80783
-2.37398
-3.03048
-3.76183
-4.53212
-5.28367
-5.94221
-6.43353
-6.69769
-6.70781
-6.46646
-6.02254
-5.41803
-4.76776
-4.04246
-0.139965
-0.169354
-0.232266
-0.310743
-0.468469
-0.685056
-0.986625
-1.38192
-1.87853
-2.48154
-3.18995
-3.99333
-4.85876
-5.72932
-6.5281
-7.17678
-7.60924
-7.79318
-7.72391
-7.44703
-6.99532
-6.48633
-5.88035
-0.138192
-0.166472
-0.230971
-0.310458
-0.475155
-0.697301
-1.01079
-1.42343
-1.9446
-2.58258
-3.34044
-4.21285
-5.16983
-6.15571
-7.09189
-7.89742
-8.50173
-8.86854
-8.98657
-8.89773
-8.62504
-8.28509
-7.82886
-0.136134
-0.163184
-0.22821
-0.309813
-0.480321
-0.707344
-1.03216
-1.46097
-2.00503
-2.67591
-3.4807
-4.41922
-5.46456
-6.56297
-7.6352
-8.59922
-9.38136
-9.94255
-10.2651
-10.3866
-10.3193
-10.1758
-9.89668
-0.133914
-0.159668
-0.224598
-0.309075
-0.483806
-0.715104
-1.05039
-1.4939
-2.05893
-2.76041
-3.60944
-4.61114
-5.74193
-6.95084
-8.1591
-9.28494
-10.2527
-11.0214
-11.5667
-11.9208
-12.084
-12.1622
-12.0869
-0.131538
-0.155943
-0.220797
-0.308417
-0.485787
-0.720987
-1.06577
-1.52254
-2.10668
-2.83653
-3.72718
-4.7892
-6.00272
-7.32044
-8.6652
-9.95678
-11.1184
-12.1075
-12.8929
-13.5005
-13.9175
-14.2409
-14.3944
-0.12892
-0.151983
-0.217292
-0.307816
-0.486534
-0.725489
-1.07885
-1.54757
-2.14914
-2.90535
-3.83517
-4.95487
-6.24867
-7.67388
-9.15607
-10.6177
-11.9815
-13.2037
-14.2457
-15.1259
-15.8181
-16.4071
-16.8114
-0.126015
-0.147875
-0.21438
-0.307146
-0.486366
-0.729061
-1.09012
-1.56967
-2.18723
-2.96802
-3.93487
-5.10989
-6.48194
-8.01385
-9.6349
-11.2712
-12.8454
-14.3123
-15.6253
-16.7944
-17.7788
-18.6492
-19.3209
-0.122848
-0.14382
-0.212182
-0.306275
-0.485576
-0.731994
-1.09992
-1.58934
-2.22159
-3.02534
-4.02719
-5.25539
-6.70388
-8.34199
-10.1036
-11.919
-13.711
-15.4324
-17.0278
-18.4969
-19.7847
-20.9454
-21.8936
-0.119475
-0.140066
-0.210652
-0.305105
-0.484395
-0.734413
-1.10839
-1.60675
-2.25244
-3.07748
-4.11221
-5.39125
-6.9142
-8.65773
-10.561
-12.5591
-14.5743
-16.5566
-18.4405
-20.2144
-21.8086
-23.2594
-24.4835
-0.115945
-0.136823
-0.209628
-0.303589
-0.482943
-0.73628
-1.11548
-1.62185
-2.27962
-3.1241
-4.18927
-5.51638
-7.1112
-8.95849
-11.0033
-13.1854
-15.4259
-17.6708
-19.8428
-21.9177
-23.8111
-25.5406
-27.0276
-0.112316
-0.13422
-0.208896
-0.301717
-0.481261
-0.737486
-1.12109
-1.6345
-2.30291
-3.1648
-4.25767
-5.62965
-7.29303
-9.24136
-11.4257
-13.7905
-16.2542
-18.7573
-21.209
-23.5708
-25.7447
-27.7286
-29.4516
-0.108653
-0.132291
-0.208267
-0.299545
-0.47934
-0.73788
-1.12505
-1.64447
-2.32201
-3.19914
-4.3167
-5.72987
-7.45777
-9.50307
-11.8229
-14.3655
-17.0453
-19.795
-22.5086
-25.1319
-27.5542
-29.7555
-31.674
-0.104994
-0.130989
-0.207534
-0.297034
-0.47708
-0.737373
-1.12738
-1.65185
-2.33697
-3.22706
-4.36608
-5.81636
-7.60386
-9.74061
-12.1892
-14.9007
-17.7835
-20.76
-23.7075
-26.5551
-29.1814
-31.5508
-33.6128
-0.101428
-0.130171
-0.206656
-0.294347
-0.474461
-0.735793
-1.12784
-1.65637
-2.34764
-3.24854
-4.40586
-5.88892
-7.73039
-9.9514
-12.5192
-15.3862
-18.4522
-21.6274
-24.7706
-27.7944
-30.5699
-33.0504
-35.1972
-0.0980331
-0.129888
-0.205351
-0.291703
-0.4722
-0.734694
-1.12861
-1.66036
-2.35575
-3.26389
-4.43409
-5.94218
-7.82739
-10.1198
-12.7912
-15.7944
-19.0196
-22.3627
-25.663
-28.8168
-31.6899
-34.2285
-36.4032
-0.0954119
-0.130167
-0.204561
-0.29052
-0.472011
-0.736199
-1.13215
-1.66655
-2.36465
-3.27726
-4.45613
-5.98292
-7.90317
-10.2549
-13.0132
-16.1292
-19.481
-22.9478
-26.3504
-29.5697
-32.4714
-35.0014
-37.1437
-0.0923308
-0.130355
-0.20387
-0.290476
-0.473917
-0.740888
-1.14012
-1.67839
-2.38039
-3.29835
-4.48615
-6.03012
-7.98066
-10.3814
-13.2082
-16.4075
-19.8434
-23.3777
-26.8162
-30.0301
-32.8917
-35.3538
-37.4153
-0.0892446
-0.13059
-0.203613
-0.291709
-0.477724
-0.747943
-1.15085
-1.69309
-2.39895
-3.32179
-4.51729
-6.07531
-8.04966
-10.4873
-13.3627
-16.6148
-20.0932
-23.6428
-27.0601
-30.2122
-32.9841
-35.3386
-37.2882
-0.0870349
-0.131207
-0.204074
-0.294028
-0.48273
-0.756008
-1.16212
-1.70743
-2.41592
-3.34189
-4.54244
-6.1101
-8.10062
-10.5624
-13.4657
-16.7405
-20.2222
-23.7409
-27.0896
-30.1374
-32.785
-35.0075
-36.8284
-0.0859156
-0.132234
-0.20515
-0.297001
-0.48813
-0.763936
-1.17242
-1.71959
-2.42925
-3.35639
-4.55919
-6.1319
-8.13073
-10.6034
-13.5142
-16.7824
-20.2308
-23.6783
-26.9198
-29.8315
-32.3319
-34.4083
-36.0931
-0.0855012
-0.133431
-0.206478
-0.300093
-0.493233
-0.770957
-1.18099
-1.729
-2.43864
-3.36541
-4.56801
-6.14145
-8.1408
-10.6111
-13.5088
-16.7424
-20.1239
-23.4655
-26.5691
-29.3217
-31.6603
-33.5838
-35.1309
-0.0852912
-0.134529
-0.207694
-0.302862
-0.497557
-0.77665
-1.18758
-1.7357
-2.44453
-3.36977
-4.57006
-6.14009
-8.13215
-10.5868
-13.4512
-16.6235
-19.9079
-23.1147
-26.0568
-28.6347
-30.8034
-32.572
-33.9831
-0.0849698
-0.135372
-0.208598
-0.305088
-0.500942
-0.780989
-1.19237
-1.7402
-2.44774
-3.37055
-4.56652
-6.12896
-8.10578
-10.5314
-13.343
-16.4292
-19.5901
-22.6385
-25.4016
-27.7951
-29.7909
-31.4061
-32.6855
-0.0843955
-0.135916
-0.209147
-0.306763
-0.503479
-0.784229
-1.19586
-1.74322
-2.44919
-3.36877
-4.55838
-6.10886
-8.06237
-10.4459
-13.1861
-16.1635
-19.178
-22.0493
-24.6215
-26.8258
-28.649
-30.1151
-31.2687
-0.0835602
-0.136198
-0.209409
-0.308012
-0.505425
-0.786784
-1.19863
-1.74554
-2.44975
-3.36529
-4.54636
-6.08036
-8.00236
-10.3309
-12.9823
-15.8308
-18.6796
-21.3592
-23.7327
-25.7463
-27.4001
-28.7223
-29.756
-0.0825037
-0.136281
-0.209494
-0.30901
-0.507055
-0.78905
-1.20121
-1.74774
-2.45
-3.36059
-4.53083
-6.0437
-7.92613
-10.1875
-12.7339
-15.4359
-18.1028
-20.5797
-22.7496
-24.5732
-26.0612
-27.2445
-28.1634
-0.0813006
-0.136245
-0.209521
-0.309924
-0.508624
-0.791347
-1.20395
-1.75017
-2.45024
-3.35488
-4.51188
-5.99896
-7.83398
-10.0166
-12.4435
-14.9834
-17.4552
-19.7211
-21.6844
-23.3191
-24.645
-25.6936
-26.5015
-0.0800105
-0.136157
-0.209584
-0.310884
-0.510295
-0.793864
-1.20704
-1.75295
-2.45046
-3.34805
-4.48939
-5.94617
-7.72641
-9.81979
-12.1142
-14.479
-16.7447
-18.7931
-20.5479
-21.9954
-23.1623
-24.0802
-24.7811
-0.0786917
-0.136078
-0.209755
-0.311971
-0.512173
-0.796692
-1.2105
-1.75602
-2.45052
-3.33987
-4.46315
-5.88533
-7.60397
-9.59859
-11.7493
-13.9277
-15.9789
-17.8049
-19.3505
-20.6124
-21.6239
-22.416
-23.0156
-0.0773717
-0.136049
-0.210069
-0.313224
-0.514286
-0.799827
-1.21428
-1.75922
-2.45018
-3.33008
-4.43299
-5.81656
-7.46746
-9.35499
-11.3523
-13.3357
-15.1655
-16.7661
-18.1025
-19.1814
-20.0413
-20.7134
-21.2182
-0.0760747
-0.136097
-0.21054
-0.314644
-0.516628
-0.803223
-1.21827
-1.76238
-2.44919
-3.31843
-4.39878
-5.74006
-7.3177
-9.09093
-10.927
-12.7084
-14.3125
-15.6857
-16.8141
-17.713
-18.4251
-18.9815
-19.3961
-0.0748008
-0.136235
-0.211154
-0.316214
-0.519156
-0.806804
-1.22233
-1.76532
-2.44738
-3.30478
-4.36052
-5.65617
-7.15572
-8.80866
-10.4773
-12.052
-13.4278
-14.5734
-15.495
-16.2168
-16.7834
-17.225
-17.549
-0.0735554
-0.136469
-0.211891
-0.3179
-0.521829
-0.810495
-1.22637
-1.76792
-2.4446
-3.28904
-4.31828
-5.56527
-6.98255
-8.5103
-10.007
-11.3722
-12.5192
-13.4378
-14.1542
-14.7002
-15.1218
-15.4463
-15.6761
-0.0723296
-0.136793
-0.212717
-0.319671
-0.524593
-0.814229
-1.23031
-1.77009
-2.44082
-3.27127
-4.27226
-5.46791
-6.79938
-8.19821
-9.52019
-10.6752
-11.5944
-12.288
-12.7999
-13.1701
-13.4454
-13.6498
-13.781
-0.0711259
-0.1372
-0.213606
-0.321492
-0.527415
-0.817959
-1.23408
-1.77181
-2.43603
-3.25153
-4.22269
-5.36462
-6.60737
-7.87462
-9.02071
-9.96659
-10.661
-11.1323
-11.4409
-11.6343
-11.7611
-11.8433
-11.8739
-0.0699379
-0.137678
-0.214527
-0.323342
-0.530261
-0.821651
-1.23768
-1.77306
-2.43031
-3.22998
-4.1699
-5.25605
-6.40784
-7.54195
-8.51257
-9.25224
-9.72658
-9.97999
-10.0871
-10.1036
-10.0798
-10.0396
-9.97024
-0.0687694
-0.138212
-0.21546
-0.325203
-0.533116
-0.82529
-1.24109
-1.77389
-2.42371
-3.20678
-4.1142
-5.14283
-6.20199
-7.20245
-7.99952
-8.53772
-8.79855
-8.84052
-8.75015
-8.59145
-8.41674
-8.25431
-8.08701
-0.0676242
-0.138793
-0.216389
-0.32707
-0.535973
-0.828882
-1.24434
-1.77436
-2.41637
-3.18214
-4.05596
-5.02566
-5.99116
-6.85845
-7.4854
-7.82859
-7.88446
-7.72418
-7.44255
-7.1148
-6.78962
-6.50349
-6.23992
-0.0664904
-0.139404
-0.217303
-0.32894
-0.53884
-0.832446
-1.24749
-1.77455
-2.40842
-3.15629
-3.99555
-4.90521
-5.77663
-6.51217
-6.97383
-7.13019
-6.99153
-6.64197
-6.17764
-5.6919
-5.2171
-4.80345
-4.44397
-0.0654245
-0.140055
-0.218192
-0.330807
-0.541723
-0.836065
-1.25076
-1.77496
-2.40084
-3.13105
-3.93638
-4.78759
-5.56873
-6.17974
-6.48829
-6.47415
-6.15932
-5.64449
-5.01191
-4.39208
-3.7769
-3.23458
-2.7814
-0.0644355
-0.140742
-0.219104
-0.332765
-0.544834
-0.840125
-1.25486
-1.77685
-2.39587
-3.11048
-3.88578
-4.6856
-5.38862
-5.89323
-6.07395
-5.91937
-5.45931
-4.81872
-4.04175
-3.32308
-2.59953
-1.93453
-1.39072
-0.06325
-0.141323
-0.219877
-0.334769
-0.54825
-0.844954
-1.26049
-1.78145
-2.3955
-3.09772
-3.84872
-4.60693
-5.24767
-5.6682
-5.7504
-5.48891
-4.9165
-4.19012
-3.2976
-2.49946
-1.72184
-0.959514
-0.327533
-0.061907
-0.141844
-0.220585
-0.336947
-0.552177
-0.850869
-1.26808
-1.78928
-2.40021
-3.09304
-3.82492
-4.5503
-5.14248
-5.49807
-5.506
-5.16564
-4.5076
-3.7235
-2.74913
-1.86419
-1.08484
-0.266901
0.454889
-0.0605885
-0.142417
-0.221391
-0.339484
-0.556814
-0.858068
-1.27777
-1.80027
-2.4096
-3.09549
-3.81249
-4.51231
-5.06719
-5.37371
-5.32672
-4.9307
-4.20972
-3.38435
-2.36935
-1.38368
-0.627303
0.200259
1.00739
-0.059388
-0.143092
-0.222399
-0.342485
-0.562264
-0.866601
-1.28945
-1.81404
-2.42277
-3.10336
-3.80846
-4.48811
-5.01402
-5.28355
-5.19593
-4.76218
-3.99705
-3.13821
-2.12303
-1.03894
-0.296227
0.50192
1.36415
-0.0582945
-0.14384
-0.223603
-0.345904
-0.568392
-0.876168
-1.30253
-1.82959
-2.43814
-3.11428
-3.80931
-4.47244
-4.97512
-5.21605
-5.0972
-4.6378
-3.84259
-2.95335
-1.96538
-0.809954
-0.0466719
0.704031
1.57375
-0.057294
-0.144638
-0.22499
-0.349688
-0.575092
-0.886558
-1.31664
-1.84623
-2.45462
-3.12656
-3.81247
-4.46135
-4.9446
-5.16246
-5.01829
-4.54051
-3.72479
-2.80633
-1.85384
-0.668948
0.143813
0.839069
1.65482
-0.05632
-0.145432
-0.226483
-0.353727
-0.582215
-0.897536
-1.3314
-1.86341
-2.47131
-3.1387
-3.81535
-4.45033
-4.91503
-5.11112
-4.94301
-4.4482
-3.61525
-2.66725
-1.74843
-0.57518
0.313319
0.99291
1.7454
-0.0553487
-0.146203
-0.227993
-0.357826
-0.589309
-0.908284
-1.34544
-1.87903
-2.48526
-3.14669
-3.81268
-4.43261
-4.87823
-5.0529
-4.86235
-4.35268
-3.50752
-2.53296
-1.6401
-0.511432
0.425299
1.05961
1.67844
-0.0545058
-0.147042
-0.229693
-0.362127
-0.596548
-0.918961
-1.35892
-1.89335
-2.49692
-3.15135
-3.80579
-4.40998
-4.83626
-4.9896
-4.77673
-4.2519
-3.39715
-2.39721
-1.51349
-0.441873
0.522726
1.13791
1.64307
-0.0538008
-0.147939
-0.231558
-0.366539
-0.603799
-0.929401
-1.37174
-1.9064
-2.50668
-3.15358
-3.79617
-4.38441
-4.7913
-4.92317
-4.68683
-4.14459
-3.28058
-2.25521
-1.362
-0.341779
0.640346
1.29095
1.75269
-0.0531238
-0.148801
-0.233399
-0.370819
-0.610747
-0.939239
-1.38354
-1.91795
-2.51456
-3.15378
-3.78467
-4.35726
-4.74527
-4.85611
-4.59571
-4.03417
-3.16072
-2.10983
-1.19101
-0.2078
0.780898
1.49245
1.9602
-0.0524077
-0.149577
-0.235103
-0.374821
-0.617222
-0.948316
-1.39423
-1.92809
-2.5209
-3.15262
-3.77239
-4.33014
-4.70045
-4.79171
-4.50832
-3.92739
-3.04516
-1.9698
-1.01414
-0.0515236
0.93142
1.6946
2.19429
-0.0516447
-0.150281
-0.236664
-0.378562
-0.623278
-0.956769
-1.4041
-1.93734
-2.52655
-3.15133
-3.76095
-4.30518
-4.65966
-4.73387
-4.43059
-3.83273
-2.94461
-1.84922
-0.852838
0.102387
1.07149
1.86249
2.40269
-0.0508497
-0.15095
-0.238131
-0.382119
-0.629047
-0.964834
-1.41354
-1.94629
-2.53234
-3.15094
-3.75153
-4.2837
-4.62438
-4.68452
-4.3658
-3.75565
-2.86728
-1.76096
-0.728637
0.225887
1.17675
1.97609
2.55739
-0.0500337
-0.15161
-0.239547
-0.385576
-0.634673
-0.972735
-1.4229
-1.95542
-2.5388
-3.15199
-3.74453
-4.26581
-4.59428
-4.64286
-4.31325
-3.69634
-2.81513
-1.7107
-0.654329
0.299324
1.23023
2.02644
2.65172
-0.049204
-0.152278
-0.240944
-0.38899
-0.640243
-0.980605
-1.43234
-1.96487
-2.54602
-3.15431
-3.73929
-4.25009
-4.56678
-4.60497
-4.26768
-3.64857
-2.78151
-1.69267
-0.627459
0.320926
1.23139
2.01725
2.68813
-0.048367
-0.152961
-0.242343
-0.392401
-0.645821
-0.988522
-1.44192
-1.97467
-2.55382
-3.15737
-3.73467
-4.23447
-4.53846
-4.56561
-4.22154
-3.60233
-2.75384
-1.69179
-0.63194
0.305911
1.1986
1.96494
2.68354
-0.0475283
-0.153663
-0.243755
-0.395824
-0.651417
-0.996484
-1.45161
-1.98464
-2.56181
-3.16036
-3.72922
-4.21658
-4.50561
-4.51918
-4.16661
-3.54618
-2.71659
-1.68771
-0.643209
0.280352
1.16144
1.89775
2.63468
-0.0466943
-0.154381
-0.245184
-0.399268
-0.65704
-1.00447
-1.46132
-1.9946
-2.56957
-3.16257
-3.72178
-4.19462
-4.46551
-4.46158
-4.09654
-3.47074
-2.65613
-1.6611
-0.636381
0.271202
1.14903
1.86135
2.56536
-0.0458688
-0.155115
-0.246631
-0.402724
-0.662661
-1.01244
-1.47095
-2.00431
-2.57673
-3.16335
-3.71138
-4.16727
-4.41641
-4.3903
-4.00743
-3.36998
-2.563
-1.59761
-0.592144
0.299554
1.17861
1.89412
2.55165
-0.0450565
-0.15586
-0.248092
-0.406187
-0.668269
-1.02033
-1.48039
-2.01361
-2.583
-3.16236
-3.69765
-4.13417
-4.35805
-4.30517
-3.89877
-3.2426
-2.43411
-1.49097
-0.501128
0.375646
1.25205
1.99305
2.64485
-0.0442577
-0.156615
-0.249564
-0.409643
-0.673827
-1.0281
-1.48955
-2.02235
-2.5882
-3.15936
-3.68041
-4.0954
-4.29102
-4.20746
-3.77251
-3.09114
-2.27204
-1.34289
-0.364509
0.49771
1.35853
2.11581
2.7846
-0.0434747
-0.157375
-0.251042
-0.413085
-0.679327
-1.03571
-1.49839
-2.03046
-2.59224
-3.15438
-3.65991
-4.05167
-4.21684
-4.0999
-3.63287
-2.92158
-2.08447
-1.1622
-0.192857
0.652985
1.47982
2.21596
2.87767
-0.0427058
-0.158139
-0.252522
-0.416499
-0.684737
-1.04313
-1.50683
-2.03786
-2.59509
-3.14744
-3.63644
-4.00376
-4.13722
-3.98556
-3.48485
-2.74147
-1.88186
-0.962127
-0.00258398
0.822295
1.59728
2.27129
2.87975
-0.0419528
-0.158902
-0.253999
-0.419881
-0.690058
-1.05033
-1.51488
-2.04456
-2.59678
-3.13875
-3.61046
-3.95267
-4.05405
-3.86777
-3.33392
-2.55912
-1.67603
-0.757839
0.187869
0.985683
1.69785
2.28678
2.80843
-0.041213
-0.159664
-0.255473
-0.423222
-0.695263
-1.05731
-1.52248
-2.05052
-2.59733
-3.12839
-3.5823
-3.89916
-3.96885
-3.74927
-3.18477
-2.38199
-1.47797
-0.56367
0.36183
1.12706
1.77516
2.27934
2.70658
-0.0404891
-0.160422
-0.256939
-0.426522
-0.700361
-1.06404
-1.52965
-2.05576
-2.59679
-3.11654
-3.55234
-3.84397
-3.88298
-3.63242
-3.04136
-2.21637
-1.297
-0.391479
0.506657
1.23587
1.82661
2.26105
2.6077
-0.0397784
-0.161176
-0.258399
-0.429771
-0.70533
-1.07052
-1.53636
-2.06026
-2.59516
-3.10325
-3.52074
-3.78746
-3.79719
-3.51864
-2.90622
-2.06649
-1.13958
-0.249283
0.614791
1.30653
1.85046
2.23536
2.52322
-0.0390849
-0.161924
-0.259849
-0.432973
-0.710182
-1.07675
-1.54262
-2.06403
-2.59249
-3.08862
-3.48769
-3.72997
-3.71206
-3.40886
-2.78088
-1.93479
-1.00933
-0.14112
0.683564
1.33758
1.84458
2.19877
2.44806
-0.038406
-0.162669
-0.261291
-0.436121
-0.714895
-1.08271
-1.54839
-2.06704
-2.58874
-3.07261
-3.45318
-3.67152
-3.62763
-3.30321
-2.66558
-1.82169
-0.906898
-0.0671423
0.714466
1.33096
1.8078
2.14441
2.37148
-0.0377462
-0.163408
-0.262724
-0.439219
-0.719483
-1.0884
-1.55368
-2.0693
-2.58392
-3.05524
-3.41723
-3.61213
-3.54389
-3.20153
-2.55984
-1.72619
-0.830568
-0.0243887
0.712229
1.29179
1.74158
2.06734
2.28413
-0.0371031
-0.164144
-0.26415
-0.442259
-0.723923
-1.09379
-1.55846
-2.07074
-2.57796
-3.03643
-3.37972
-3.5516
-3.46048
-3.10315
-2.46238
-1.64596
-0.776672
-0.00753964
0.6839
1.22761
1.65157
1.96825
2.18206
-0.0364813
-0.164875
-0.265567
-0.445246
-0.728229
-1.0989
-1.56272
-2.07138
-2.57085
-3.01616
-3.34063
-3.48984
-3.37714
-3.0074
-2.37166
-1.578
-0.740376
-0.0098554
0.637908
1.14793
1.54695
1.85362
2.06792
-0.0358781
-0.165606
-0.266977
-0.448172
-0.732375
-1.10369
-1.56642
-2.07113
-2.56251
-2.99431
-3.29977
-3.42658
-3.29341
-2.91337
-2.28582
-1.51885
-0.716253
-0.0240704
0.583035
1.06269
1.43864
1.7336
1.94872
-0.0352984
-0.166333
-0.268378
-0.45104
-0.736375
-1.10818
-1.56956
-2.07001
-2.55291
-2.97085
-3.25711
-3.36172
-3.20901
-2.82032
-2.20315
-1.46509
-0.698916
-0.0432153
0.527401
0.981173
1.33732
1.62028
1.83472
-0.034739
-0.167059
-0.269773
-0.453843
-0.740203
-1.11231
-1.57209
-2.06792
-2.54197
-2.94567
-3.21249
-3.29505
-3.12359
-2.72747
-2.12194
-1.41356
-0.683534
-0.0613489
0.477523
0.910097
1.25089
1.52257
1.73461
-0.0342048
-0.167783
-0.271158
-0.456584
-0.743869
-1.1161
-1.574
-2.06487
-2.52966
-2.91873
-3.16589
-3.22653
-3.03698
-2.6343
-2.04086
-1.36163
-0.666232
-0.0740804
0.437565
0.852709
1.18213
1.4436
1.65092
-0.0336927
-0.168506
-0.272536
-0.459252
-0.747345
-1.1195
-1.57524
-2.06078
-2.5159
-2.88994
-3.1172
-3.15603
-2.94899
-2.54034
-1.95885
-1.30735
-0.644382
-0.0789423
0.409037
0.808605
1.12847
1.38082
1.58091
-0.0332075
-0.169225
-0.273902
-0.461851
-0.750643
-1.12253
-1.5758
-2.05562
-2.50065
-2.85928
-3.06644
-3.0836
-2.85964
-2.44542
-1.87529
-1.24957
-0.616656
-0.0753127
0.391157
0.775063
1.08466
1.32739
1.51855
-0.0327463
-0.169943
-0.275259
-0.464371
-0.753732
-1.12514
-1.57562
-2.04933
-2.48383
-2.82665
-3.01353
-3.00921
-2.76892
-2.34945
-1.78993
-1.18795
-0.58303
-0.0642558
0.381461
0.748159
1.04498
1.27649
1.45664
-0.0323139
-0.170655
-0.276602
-0.466813
-0.756622
-1.12734
-1.5747
-2.04189
-2.46542
-2.79207
-2.95855
-2.93299
-2.67702
-2.25259
-1.70294
-1.12286
-0.544478
-0.0478819
0.376658
0.723998
1.00468
1.22298
1.39052
-0.031908
-0.171364
-0.277933
-0.469166
-0.759281
-1.12907
-1.57298
-2.03323
-2.44535
-2.75547
-2.90147
-2.85501
-2.5841
-2.15513
-1.61484
-1.05531
-0.502773
-0.0288889
0.373484
0.699422
0.960921
1.16372
1.31799
-0.0315319
-0.172065
-0.279247
-0.47143
-0.761717
-1.13033
-1.57045
-2.02331
-2.42359
-2.71688
-2.8424
-2.77548
-2.49051
-2.05755
-1.52643
-0.986639
-0.459992
-0.0099851
0.369188
0.672306
0.913332
1.09932
1.24029
-0.0311875
-0.172762
-0.280548
-0.4736
-0.763905
-1.13111
-1.56706
-2.0121
-2.40009
-2.67625
-2.78139
-2.69457
-2.39657
-1.96046
-1.43875
-0.918475
-0.418319
0.00613753
0.361887
0.641398
0.860248
1.02858
1.15708
-0.0308616
-0.173444
-0.281825
-0.475664
-0.765834
-1.13134
-1.56273
-1.99949
-2.37477
-2.6336
-2.71855
-2.61255
-2.30276
-1.86452
-1.35283
-0.852184
-0.37924
0.017433
0.35016
0.607922
0.805966
0.959629
1.07457
-0.0305827
-0.174136
-0.283125
-0.477704
-0.767614
-1.1312
-1.55762
-1.98556
-2.34761
-2.5888
-2.65381
-2.52951
-2.20947
-1.77063
-1.27017
-0.789731
-0.344619
0.0210129
0.332165
0.57441
0.736032
0.863233
0.976123
-0.0301515
-0.174769
-0.284459
-0.479781
-0.769271
-1.1303
-1.55061
-1.96816
-2.31539
-2.53803
-2.58343
-2.44251
-2.11499
-1.6782
-1.19084
-0.730922
-0.312149
0.0211669
0.299005
0.54886
0.736104
0.847222
0.93912
-0.029824
-0.175388
-0.285671
-0.481197
-0.769344
-1.12623
-1.53821
-1.94292
-2.27344
-2.47733
-2.50562
-2.35352
-2.02599
-1.59882
-1.13054
-0.69471
-0.303792
0.00510754
0.243039
0.440406
0.595905
0.706127
0.802347
-0.0298066
-0.1762
-0.287132
-0.482294
-0.76816
-1.11914
-1.52042
-1.90976
-2.22163
-2.40635
-2.41927
-2.25984
-1.93753
-1.52542
-1.08058
-0.671494
-0.310077
-0.0231433
0.184541
0.340193
0.471167
0.578343
0.669695
-0.0300631
-0.177162
-0.288789
-0.483074
-0.765749
-1.1092
-1.49754
-1.86898
-2.16005
-2.32443
-2.32244
-2.15786
-1.84435
-1.45149
-1.03341
-0.652158
-0.319466
-0.0500924
0.149288
0.29642
0.417716
0.515961
0.595357
-0.0302931
-0.177958
-0.290162
-0.483003
-0.761398
-1.09554
-1.46853
-1.81939
-2.0872
-2.22966
-2.21281
-2.04502
-1.74411
-1.37515
-0.987701
-0.635486
-0.329778
-0.0758971
0.121815
0.269246
0.384322
0.474315
0.544972
-0.030392
-0.178417
-0.290964
-0.481669
-0.754483
-1.07732
-1.43234
-1.75971
-2.00166
-2.12051
-2.08881
-1.91979
-1.63513
-1.29435
-0.941254
-0.619949
-0.341923
-0.107948
0.0805051
0.223885
0.333248
0.417702
0.483629
-0.0305249
-0.178595
-0.291243
-0.479063
-0.744925
-1.05443
-1.38885
-1.68995
-1.90367
-1.99743
-1.95088
-1.78205
-1.51588
-1.20574
-0.889358
-0.601449
-0.353647
-0.145311
0.0254786
0.159004
0.261429
0.340438
0.402704
-0.0308911
-0.178628
-0.291167
-0.475312
-0.732853
-1.02707
-1.33855
-1.6111
-1.79491
-1.86288
-1.80192
-1.63433
-1.38765
-1.10896
-0.830256
-0.577918
-0.362278
-0.182567
-0.0344042
0.0840735
0.176568
0.248362
0.306214
-0.0315848
-0.178575
-0.290808
-0.470464
-0.718334
-0.99547
-1.28202
-1.52449
-1.67781
-1.72063
-1.64693
-1.48241
-1.25626
-1.00934
-0.768447
-0.552496
-0.369486
-0.2185
-0.0945742
0.00588531
0.0858265
0.148651
0.200799
-0.0326012
-0.178414
-0.290106
-0.464382
-0.701192
-0.959569
-1.21965
-1.43136
-1.55504
-1.57516
-1.49228
-1.33424
-1.13057
-0.91572
-0.711666
-0.531021
-0.378974
-0.254407
-0.152807
-0.0699182
-0.00264777
0.0510308
0.0968382
-0.0338948
-0.178057
-0.288891
-0.456801
-0.681106
-0.919186
-1.15174
-1.33301
-1.42934
-1.43106
-1.3443
-1.19734
-1.01835
-0.835288
-0.665331
-0.516643
-0.391689
-0.289365
-0.205915
-0.137617
-0.0812008
-0.0355115
0.00407059
-0.0354141
-0.177391
-0.28693
-0.447362
-0.65767
-0.874127
-1.07871
-1.23089
-1.30353
-1.29237
-1.2076
-1.07611
-0.922909
-0.769801
-0.629616
-0.507733
-0.404945
-0.320134
-0.250491
-0.193164
-0.145208
-0.105681
-0.0714145
-0.0371071
-0.176275
-0.283939
-0.43569
-0.630531
-0.824371
-1.00124
-1.12663
-1.18003
-1.16165
-1.08391
-0.970464
-0.842343
-0.715813
-0.600484
-0.50002
-0.414723
-0.343435
-0.284234
-0.234985
-0.193451
-0.158584
-0.128412
-0.038921
-0.174551
-0.279608
-0.421411
-0.599442
-0.770142
-0.920301
-1.02188
-1.06053
-1.03959
-0.971788
-0.876775
-0.771363
-0.667617
-0.572694
-0.489444
-0.418096
-0.357706
-0.306876
-0.264085
-0.227707
-0.196766
-0.169858
-0.0407874
-0.172031
-0.273602
-0.404212
-0.564336
-0.711932
-0.837025
-0.917988
-0.945652
-0.925025
-0.867923
-0.789965
-0.704301
-0.619973
-0.542328
-0.473677
-0.414335
-0.363603
-0.320446
-0.283735
-0.252317
-0.225395
-0.201854
-0.0426234
-0.168515
-0.26559
-0.383864
-0.525351
-0.650451
-0.752539
-0.815824
-0.835135
-0.81599
-0.768806
-0.705716
-0.636967
-0.56934
-0.506838
-0.451222
-0.402843
-0.361178
-0.325455
-0.294805
-0.268397
-0.245626
-0.225622
-0.0443116
-0.163775
-0.255263
-0.360263
-0.482824
-0.586536
-0.667848
-0.715965
-0.728505
-0.71101
-0.672289
-0.62184
-0.567394
-0.514109
-0.464808
-0.420805
-0.382305
-0.348973
-0.320179
-0.295315
-0.273729
-0.255026
-0.238527
-0.0457116
-0.15759
-0.24237
-0.333466
-0.437289
-0.521119
-0.583956
-0.619044
-0.625983
-0.610023
-0.578503
-0.538744
-0.496486
-0.455504
-0.417773
-0.384148
-0.354704
-0.329161
-0.307022
-0.287826
-0.271088
-0.256524
-0.243655
-0.0466454
-0.149751
-0.226767
-0.303699
-0.389456
-0.455255
-0.502016
-0.526237
-0.528828
-0.514587
-0.489451
-0.458906
-0.427071
-0.396579
-0.36874
-0.344033
-0.322412
-0.303602
-0.287215
-0.272898
-0.260314
-0.249258
-0.239437
-0.0469247
-0.140108
-0.208447
-0.271405
-0.340243
-0.390209
-0.423511
-0.43923
-0.438967
-0.426914
-0.407651
-0.385154
-0.362253
-0.3407
-0.321301
-0.304278
-0.289495
-0.276686
-0.265532
-0.255764
-0.247142
-0.239528
-0.232748
-0.0463557
-0.128605
-0.18762
-0.237255
-0.290803
-0.327449
-0.350112
-0.35969
-0.358022
-0.348446
-0.33437
-0.318531
-0.302817
-0.288308
-0.27547
-0.264349
-0.254781
-0.246516
-0.239308
-0.232951
-0.227294
-0.222241
-0.217727
-0.044782
-0.115336
-0.164729
-0.202187
-0.242501
-0.268538
-0.283291
-0.288756
-0.286625
-0.279351
-0.269355
-0.25849
-0.247981
-0.238482
-0.230239
-0.223221
-0.217263
-0.212158
-0.207714
-0.203782
-0.200265
-0.197096
-0.194273
-0.0421163
-0.100595
-0.140522
-0.16739
-0.196808
-0.214925
-0.224162
-0.227045
-0.224975
-0.219642
-0.212706
-0.20543
-0.1986
-0.192608
-0.18756
-0.183383
-0.179923
-0.177007
-0.174486
-0.17225
-0.170236
-0.168398
-0.166767
-0.0383882
-0.0849168
-0.11601
-0.134199
-0.155155
-0.167788
-0.173525
-0.174986
-0.173365
-0.169741
-0.165208
-0.160606
-0.156439
-0.152928
-0.150096
-0.147856
-0.146071
-0.144604
-0.143344
-0.142214
-0.141179
-0.140212
-0.139355
-0.0337799
-0.0690573
-0.0923838
-0.103932
-0.118688
-0.127878
-0.131714
-0.132608
-0.131655
-0.129507
-0.126827
-0.124152
-0.121804
-0.119907
-0.118451
-0.117353
-0.116511
-0.115821
-0.115213
-0.114637
-0.114082
-0.113535
-0.113044
-0.0286236
-0.0539043
-0.0708058
-0.0775911
-0.087988
-0.0952215
-0.0982762
-0.0991328
-0.0988812
-0.0979552
-0.0967077
-0.0954652
-0.0944304
-0.0936809
-0.0931962
-0.0929135
-0.0927527
-0.0926472
-0.0925474
-0.092428
-0.0922856
-0.0921213
-0.0919719
-0.0233555
-0.0403054
-0.052156
-0.0556464
-0.0629097
-0.0690294
-0.0719245
-0.0729573
-0.0732464
-0.0731768
-0.0729135
-0.0726228
-0.0724197
-0.0723553
-0.0724115
-0.0725474
-0.0727082
-0.0728553
-0.0729597
-0.073014
-0.0730226
-0.0729964
-0.0729654
-0.018379
-0.0287891
-0.0367505
-0.0378523
-0.0425325
-0.0477414
-0.0506373
-0.0518069
-0.0523457
-0.0527144
-0.0530084
-0.0532814
-0.0535782
-0.0539249
-0.0543084
-0.0547031
-0.0550744
-0.0554004
-0.0556664
-0.0558732
-0.0560288
-0.0561465
-0.0562489
-0.0139722
-0.0195976
-0.0246266
-0.02393
-0.0262785
-0.0305443
-0.0335206
-0.0348838
-0.0355398
-0.0360607
-0.0365661
-0.0370505
-0.0375025
-0.0379277
-0.0383179
-0.0386658
-0.0389568
-0.0391875
-0.0393561
-0.0394726
-0.0395478
-0.0395986
-0.0396398
-0.00968728
-0.0118093
-0.014554
-0.0121713
-0.0118008
-0.0143965
-0.0169665
-0.0183216
-0.0190219
-0.0197348
-0.0206639
-0.0217723
-0.0229706
-0.0241996
-0.02541
-0.0265705
-0.0276527
-0.0286435
-0.0295339
-0.0303273
-0.0310286
-0.0316509
-0.0322032
-0.00485334
-0.00649567
-0.00782767
-0.00581557
-0.0044073
-0.0054917
-0.00727137
-0.00813292
-0.007995
-0.00740726
-0.00672711
-0.00606638
-0.0054159
-0.00476743
-0.00411122
-0.00345635
-0.00280602
-0.00217515
-0.00157145
-0.00101089
-0.000501139
-5.60833e-05
0.000321805
-0.00336741
-0.0326259
0.00724797
0.0532419
0.128243
0.249832
0.42804
0.681568
1.02253
1.46942
2.03907
2.75982
3.66191
4.77994
6.13686
7.73413
9.53994
11.4896
13.4964
15.4615
17.3062
18.951
20.4021
-0.00883057
-0.0318016
-0.00187719
0.0459112
0.11861
0.234594
0.40687
0.652752
0.987038
1.429
1.99828
2.7225
3.63144
4.75598
6.11539
7.70678
9.49539
11.4153
13.3796
15.2925
17.0764
18.6597
20.0447
-0.0155978
-0.031567
-0.0109165
0.034618
0.103244
0.210839
0.372427
0.604875
0.92487
1.35272
1.91035
2.62503
3.52568
4.63969
5.98267
7.54808
9.29926
11.1704
13.0761
14.9245
16.6405
18.1597
19.4807
-0.0241348
-0.0333211
-0.0197227
0.0198912
0.0819045
0.17824
0.324375
0.537165
0.834519
1.2377
1.77037
2.45983
3.33421
4.41817
5.72435
7.24371
8.93889
10.7454
12.5807
14.3572
16.0027
17.459
18.7214
-0.0350897
-0.0386791
-0.0292751
0.00196353
0.0542508
0.136067
0.261821
0.44817
0.713638
1.08013
1.57249
2.21834
3.04538
4.07673
5.32342
6.77565
8.39704
10.1259
11.8836
13.5869
15.1659
16.5664
17.7798
-0.0492708
-0.0491504
-0.0418161
-0.0199997
0.0193925
0.0829864
0.183241
0.336008
0.559798
0.876659
1.31206
1.89398
2.65024
3.60373
4.76559
6.12734
7.65566
9.29359
10.9676
12.5993
14.1207
15.4794
16.6606
-0.0672852
-0.0657602
-0.0602518
-0.0480081
-0.0240696
0.0175145
0.0871206
0.19918
0.371552
0.625973
0.98806
1.48625
2.14906
3.00048
4.05354
5.30306
6.72062
8.25535
9.83998
11.4011
12.8731
14.2042
15.3744
-0.0885398
-0.0883756
-0.0863693
-0.084089
-0.0777982
-0.0624564
-0.0296625
0.0332076
0.142905
0.320652
0.592272
0.987247
1.53607
2.26567
3.19314
4.31844
5.61914
7.0505
8.55041
10.0486
11.4797
12.7897
13.9531
0.0465468
-0.0437498
0.0267244
0.0402628
0.123772
0.264012
0.441569
0.722955
1.06084
1.47653
1.94269
2.45713
3.00368
3.5774
4.16265
4.74404
5.29255
5.77013
6.14887
6.41075
6.55712
6.61893
6.59886
0.0441449
-0.0448254
0.0237306
0.0391359
0.122813
0.263565
0.442872
0.726646
1.06909
1.49354
1.97477
2.51536
3.10321
3.74135
4.42104
5.13301
5.85089
6.53287
7.14279
7.64639