/*--------------------------------*- C++ -*----------------------------------*\
  =========                 |
  \\      /  F ield         | OpenFOAM: The Open Source CFD Toolbox
   \\    /   O peration     | Website:  https://openfoam.org
    \\  /    A nd           | Version:  7
     \\/     M anipulation  |
\*---------------------------------------------------------------------------*/
FoamFile
{
    version     2.0;
    format      ascii;
    class       surfaceScalarField;
    location    "50";
    object      phi;
}
// * * * * * * * * * * * * * * * * * * * * * * * * * * * * * * * * * * * * * //

dimensions      [0 3 -1 0 0 0 0];

internalField   nonuniform List<scalar> 
25449
(
70.2185
35.9713
-10.7689
52.017
26.3724
-8.17094
38.7401
19.4739
-6.19693
28.9762
14.4668
-4.70299
21.749
10.8008
-3.57358
16.3716
8.09746
-2.72008
12.3543
6.0925
-2.07514
9.34333
4.59868
-1.58775
7.08102
3.48154
-1.21924
5.37785
2.64344
-0.940278
4.09368
2.01285
-0.728677
3.12431
1.53702
-0.567646
2.39199
1.17684
-0.444522
1.83851
0.903257
-0.349785
1.42019
0.69465
-0.276327
1.10412
0.534953
-0.218882
0.865465
0.412227
-0.173571
0.685421
0.317604
-0.13756
0.549724
0.24448
-0.108783
0.447539
0.187913
-0.0857281
0.370639
0.14416
-0.0672606
0.312781
0.110381
-0.052522
0.084304
-0.0407914
0.269268
56.3096
55.673
41.9403
40.7417
31.374
30.0402
23.5531
22.2877
17.7342
16.6198
13.387
12.4447
10.1288
9.35065
7.68073
7.04679
5.83762
5.32465
4.44783
4.03323
3.39862
3.06207
2.6058
2.32983
2.0064
1.77625
1.55311
1.35654
1.21038
1.03738
0.951377
0.793954
0.755822
0.607782
0.60833
0.465096
0.497215
0.355595
0.413588
0.271541
0.350694
0.207054
0.303403
0.157672
0.119847
0.267859
44.0979
70.5748
33.08
51.7596
24.8889
38.2313
18.7734
28.4033
14.1922
21.2009
10.7516
15.8853
8.16217
11.9401
6.21023
8.99873
4.73693
6.79795
3.62376
5.1464
2.78202
3.90381
2.14516
2.96669
1.66316
2.25825
1.29837
1.72133
1.0224
1.31335
0.813778
1.00258
0.656238
0.765323
0.537422
0.583911
0.447924
0.445093
0.38058
0.338885
0.329942
0.257692
0.291873
0.195742
0.148459
0.26326
34.1528
81.5362
25.8776
60.0349
19.6248
44.484
14.8978
33.1303
11.3226
24.7761
8.61753
18.5904
6.5701
13.9875
5.0199
10.5489
3.84581
7.97204
2.95633
6.03588
2.28228
4.57786
1.77141
3.47756
1.38423
2.64544
1.09086
2.0147
0.868712
1.5355
0.700665
1.17062
0.573701
0.892286
0.47791
0.679703
0.405733
0.51727
0.351406
0.393212
0.310541
0.298557
0.279807
0.226476
0.171572
0.256694
26.3755
89.3649
20.2667
66.1436
15.5366
49.2141
11.895
36.7719
9.10299
27.5681
6.96876
20.7246
5.34081
15.6154
4.10091
11.7888
3.15755
8.9154
2.44033
6.75311
1.8953
5.12289
1.48127
3.89158
1.16689
2.95982
0.928297
2.25329
0.747385
1.71641
0.610368
1.30764
0.506742
0.995913
0.428483
0.757961
0.369462
0.576292
0.324994
0.43768
0.291513
0.332038
0.266307
0.251682
0.190549
0.24733
20.4358
94.745
16.0053
70.5741
12.4454
52.7741
9.63227
39.585
7.43457
29.7658
5.73145
22.4277
4.41909
16.9278
3.41192
12.796
2.64119
9.68612
2.05262
7.34168
1.60378
5.57172
1.26186
4.23351
1.00159
3.22009
0.803663
2.45122
0.653296
1.86678
0.53921
1.42173
0.452779
1.08234
0.387395
0.823345
0.337998
0.625688
0.300718
0.47496
0.272598
0.360158
0.251394
0.272885
0.206539
0.235404
15.969
98.229
12.8237
73.7193
10.1509
55.4469
7.96026
41.7756
6.20568
31.5204
4.82198
23.8114
3.74221
18.0076
2.90585
13.6324
2.26142
10.3305
1.76671
7.8364
1.38791
5.95052
1.09837
4.52305
0.877357
3.4411
0.708843
2.61973
0.580513
1.99511
0.482914
1.51933
0.408794
1.15646
0.352583
0.879556
0.310008
0.668264
0.277792
0.507176
0.253431
0.384519
0.235018
0.291298
0.220457
0.221101
12.6405
100.249
10.4742
75.8856
8.46881
57.4524
6.74139
43.503
5.31333
32.9485
4.16304
24.9617
3.25209
18.9185
2.53902
14.3454
1.98536
10.8842
1.55788
8.26387
1.22912
6.27929
0.976919
4.77524
0.783808
3.63421
0.63614
2.7674
0.523363
2.10789
0.437339
1.60535
0.371806
1.222
0.321946
0.929416
0.284054
0.706155
0.255284
0.535946
0.233459
0.406345
0.216909
0.307849
0.232999
0.204366
9.99703
103.832
7.42051
78.4621
5.54704
59.3258
4.17306
44.877
3.15796
33.9636
2.40367
25.716
1.84041
19.4818
1.41816
14.7677
1.10061
11.2018
0.86117
8.50331
0.680213
6.46025
0.543172
4.91228
0.439207
3.73818
0.360228
2.84638
0.30018
2.16793
0.254505
1.65102
0.219763
1.25674
0.193338
0.955841
0.173241
0.726252
0.157961
0.551227
0.146342
0.417964
0.137515
0.316676
0.239712
0.130802
7.65883
106.579
5.6874
80.4335
4.2563
60.7569
3.20821
45.9251
2.43467
34.7371
1.8603
26.2904
1.43157
19.9105
1.11022
15.089
0.868539
11.4434
0.686249
8.6856
0.548404
6.59809
0.443914
5.01677
0.364534
3.81756
0.304116
2.9068
0.258061
2.21399
0.222913
1.68617
0.196066
1.28359
0.17554
0.976367
0.159836
0.741955
0.147815
0.563248
0.138609
0.427169
0.131566
0.323719
0.245105
0.126173
5.85036
108.669
4.35101
81.9329
3.26322
61.8447
2.46689
46.7214
1.87934
35.3247
1.44312
26.7266
1.11746
20.2362
0.873297
15.3332
0.689581
11.6272
0.550917
8.82427
0.445957
6.70305
0.366278
5.09645
0.305621
3.87821
0.259318
2.9531
0.223886
2.24942
0.196709
1.71335
0.175819
1.30448
0.159726
0.992459
0.147307
0.754375
0.137711
0.572844
0.13029
0.434591
0.124558
0.329451
0.249532
0.120131
4.45799
110.244
3.32591
83.0649
2.50344
62.6672
1.90065
47.3242
1.45545
35.7699
1.1246
27.0574
0.877365
20.4834
0.691803
15.5188
0.552029
11.7669
0.446396
8.9299
0.36631
6.78314
0.305379
5.15738
0.258849
3.92474
0.223179
2.98877
0.195727
2.27687
0.174515
1.73456
0.158062
1.32093
0.145252
1.00527
0.135248
0.764379
0.12742
0.580672
0.121289
0.440722
0.116497
0.334243
0.253274
0.112755
3.39083
111.416
2.54359
83.9122
1.92521
63.2856
1.47029
47.7791
1.13328
36.1069
0.882158
27.3086
0.694049
20.6715
0.552561
15.6602
0.445768
11.8737
0.364889
9.01078
0.30342
6.84461
0.2565
5.2043
0.220514
3.96073
0.19276
3.01652
0.171232
2.2984
0.154431
1.75136
0.141242
1.33412
0.130832
1.01568
0.12258
0.772631
0.116026
0.587227
0.110816
0.445932
0.106688
0.33837
0.256538
0.103424
2.58225
112.274
1.95418
84.5402
1.49122
63.7486
1.14792
48.1224
0.891974
36.3628
0.70025
27.5003
0.555992
20.8158
0.447071
15.7692
0.36458
11.9562
0.3019
9.07346
0.25409
6.89242
0.217433
5.24096
0.189149
3.98901
0.16716
3.03851
0.149925
2.31563
0.1363
1.76499
0.125443
1.34498
0.11673
1.02439
0.109704
0.779657
0.104028
0.592903
0.0994441
0.450516
0.0957616
0.342053
0.259486
0.0928138
1.96137
112.884
1.50445
84.9972
1.1614
64.0916
0.903374
48.3804
0.708834
36.5574
0.561791
27.6473
0.450342
20.9272
0.365684
15.8538
0.301238
12.0207
0.252034
9.12266
0.214319
6.93013
0.185227
5.27005
0.162605
4.01164
0.144837
3.05628
0.130727
2.32974
0.119395
1.77632
0.110203
1.35417
0.102687
1.03191
0.0965119
0.785833
0.0914361
0.597979
0.0872731
0.454679
0.0838843
0.345442
0.262229
0.081141
1.49857
113.3
1.17235
85.3234
0.919352
64.3446
0.724423
48.5754
0.574749
36.707
0.460011
27.7621
0.372084
21.0151
0.304699
15.9212
0.25303
12.0723
0.213329
9.16236
0.182704
6.96076
0.158908
5.29385
0.140232
4.03031
0.125387
3.07113
0.113425
2.34171
0.103652
1.78609
0.0955761
1.36224
0.0888494
1.03864
0.0832262
0.791456
0.0785331
0.602672
0.0746345
0.458577
0.0714285
0.348648
0.264846
0.0688118
1.15127
113.563
0.926051
85.5486
0.741273
64.5294
0.593283
48.7234
0.476453
36.8239
0.385044
27.8535
0.31391
21.0863
0.258746
15.9764
0.21605
12.115
0.182983
9.19543
0.157285
6.98646
0.13715
5.31398
0.121189
4.04627
0.10834
3.08397
0.0978261
2.35222
0.0890891
1.79483
0.0817423
1.36959
0.0755205
1.04486
0.0702438
0.796733
0.0657882
0.607128
0.0620535
0.462312
0.058963
0.351738
0.26738
0.0564289
0.892457
113.706
0.745416
85.6957
0.61212
64.6627
0.498711
48.8368
0.405548
36.917
0.330626
27.9284
0.271165
21.1457
0.224378
16.0232
0.187764
12.1516
0.159155
9.22404
0.136744
7.00887
0.119038
5.33169
0.104863
4.06045
0.0933146
3.09552
0.0837335
2.3618
0.0756516
1.80291
0.068757
1.37649
0.0628444
1.05077
0.0577801
0.801797
0.0534747
0.611433
0.0498509
0.465936
0.0468472
0.354742
0.269844
0.0443833
0.702807
113.751
0.616112
85.7824
0.521253
64.7575
0.432808
48.9252
0.35618
36.9937
0.292435
27.9921
0.240676
21.1975
0.199286
16.0646
0.166517
12.1844
0.140681
9.24988
0.12029
7.02926
0.104061
5.34792
0.0909608
4.07355
0.0801844
3.1063
0.0711463
2.37084
0.0634379
1.81062
0.0567977
1.38313
0.051061
1.05651
0.0461261
0.806732
0.0419253
0.615634
0.0383934
0.469468
0.0354748
0.357661
0.272229
0.0330903
0.565632
113.72
0.525729
85.8223
0.45942
64.8238
0.388667
48.996
0.323196
37.0591
0.266629
28.0487
0.219585
21.2445
0.181356
16.1028
0.15075
12.215
0.126425
9.2742
0.107108
7.04857
0.0916477
5.36338
0.0790966
4.0861
0.0687055
3.11669
0.0599315
2.37961
0.0524016
1.81815
0.0458859
1.38964
0.040247
1.06215
0.0354023
0.811577
0.0312957
0.619741
0.0278642
0.472899
0.0250502
0.360475
0.274509
0.0227699
0.469444
113.625
0.465729
85.826
0.420246
64.8693
0.361512
49.0547
0.303004
37.1176
0.250498
28.1012
0.205841
21.2892
0.169028
16.1396
0.139276
12.2448
0.11548
9.298
0.0965033
7.06755
0.0812659
5.37862
0.0688633
4.0985
0.0585692
3.12699
0.0498591
2.38832
0.0423764
1.82563
0.0359092
1.39611
0.0303342
1.06772
0.0255777
0.816334
0.0215845
0.623734
0.018285
0.476199
0.015612
0.363148
0.276649
0.0134726
0.402676
113.477
0.42749
85.8012
0.397274
64.8995
0.346487
49.1055
0.291945
37.1722
0.241281
28.1519
0.197358
21.3331
0.160726
16.1762
0.130905
12.2746
0.106947
9.32196
0.0877948
7.0867
0.0724033
5.39401
0.0598783
4.11103
0.0494937
3.13737
0.040726
2.39709
0.033222
1.83313
0.0267758
1.40256
0.021269
1.07323
0.0166262
0.820977
0.0127845
0.627576
0.00965933
0.479324
0.00716849
0.365639
0.278611
0.00520658
0.358309
113.286
0.405845
85.7536
0.386677
64.9187
0.340743
49.1514
0.287879
37.225
0.237352
28.2024
0.19289
21.3776
0.155491
16.2136
0.124894
12.3052
0.100252
9.3466
0.0805431
7.10641
0.0647214
5.40983
0.0518812
4.12387
0.0412792
3.14797
0.03238
2.40599
0.0248218
1.84069
0.0183964
1.40898
0.0129799
1.07864
0.00848665
0.82547
0.00483743
0.631225
0.00192825
0.482233
-0.000342256
0.36791
0.28036
-0.00209193
-0.172066
113.224
-0.126396
85.708
-0.0923478
64.8847
-0.0667973
49.1259
-0.0476063
37.2059
-0.0331879
28.188
-0.0223946
21.3668
-0.0143627
16.2056
-0.00843361
12.2993
-0.00413472
9.3423
-0.00113994
7.10342
0.000742808
5.40795
0.00164433
4.12297
0.00166981
3.14795
0.000959546
2.4067
-0.000301439
1.84195
-0.00188289
1.41056
-0.00355732
1.08032
-0.00513888
0.827052
-0.00650831
0.632594
-0.0076214
0.483346
-0.0084801
0.368768
0.281006
-0.00912554
-0.169013
113.166
-0.126908
85.6658
-0.0954781
64.8532
-0.0718617
49.1023
-0.054103
37.1881
-0.0407465
28.1746
-0.0307412
21.3568
-0.0232921
16.1981
-0.017788
12.2937
-0.0137851
9.3383
-0.0109728
7.10061
-0.00916493
5.40614
-0.00822966
4.12203
-0.00805734
3.14777
-0.00850406
2.40715
-0.0093859
1.84284
-0.0104861
1.41166
-0.0116016
1.08143
-0.0125857
0.828036
-0.0133616
0.63337
-0.0139202
0.483905
-0.0142898
0.369138
0.281238
-0.0145214
-0.165805
113.113
-0.126949
85.627
-0.0979015
64.8242
-0.0760422
49.0804
-0.0595828
37.1716
-0.0471881
28.1622
-0.0378943
21.3475
-0.0309687
16.1912
-0.0258425
12.2886
-0.0220963
9.33455
-0.0194327
7.09794
-0.0176681
5.40438
-0.0166675
4.12103
-0.0163154
3.14742
-0.016465
2.4073
-0.0169366
1.84331
-0.0175332
1.41226
-0.0180836
1.08198
-0.0184839
0.828436
-0.0186997
0.633586
-0.0187506
0.483956
-0.0186836
0.369071
0.281107
-0.0185529
-0.162504
113.064
-0.126632
85.5911
-0.0997693
64.7973
-0.0795196
49.0602
-0.0642484
37.1564
-0.0527313
28.1507
-0.0440852
21.3388
-0.0376337
16.1848
-0.0328462
12.2838
-0.029325
9.33103
-0.0267824
7.0954
-0.0250353
5.40263
-0.0239434
4.11994
-0.0233845
3.14686
-0.0232104
2.40712
-0.0232502
1.84335
-0.0233333
1.41234
-0.0233262
1.08198
-0.0231695
0.82828
-0.0228679
0.633284
-0.0224638
0.483552
-0.0220162
0.368623
0.280669
-0.021578
-0.159152
113.019
-0.126037
85.558
-0.101191
64.7725
-0.0824249
49.0414
-0.0682471
37.1422
-0.057536
28.14
-0.049483
21.3308
-0.0434635
16.1788
-0.0389816
12.2794
-0.0356584
9.32771
-0.0332139
7.09296
-0.0314626
5.40088
-0.0302579
4.11874
-0.0294705
3.14608
-0.0289533
2.40661
-0.028549
1.84294
-0.0281193
1.41191
-0.0275731
1.08143
-0.0268953
0.827602
-0.0261248
0.632514
-0.0253205
0.482748
-0.0245476
0.367851
0.279974
-0.0238522
-0.155779
112.978
-0.125224
85.5275
-0.102249
64.7495
-0.0848572
49.024
-0.0716908
37.129
-0.0617238
28.13
-0.0542166
21.3233
-0.0485927
16.1731
-0.044388
12.2751
-0.0412398
9.32456
-0.0388735
7.09059
-0.0370999
5.39911
-0.0357646
4.1174
-0.0347321
3.14504
-0.0338587
2.40573
-0.0330063
1.84209
-0.0320736
1.41098
-0.0310151
1.08037
-0.0298575
0.826445
-0.0286683
0.631325
-0.0275172
0.481597
-0.0264693
0.366803
0.279066
-0.0255607
-0.152407
112.94
-0.124239
85.4993
-0.103007
64.7283
-0.0868925
49.0079
-0.0746653
37.1168
-0.065388
28.1208
-0.0583852
21.3163
-0.0531251
16.1679
-0.0491727
12.2712
-0.0461796
9.32157
-0.0438745
7.08828
-0.0420633
5.39729
-0.0405832
4.11592
-0.0392934
3.14376
-0.0380571
2.4045
-0.0367598
1.84079
-0.0353413
1.40956
-0.0338028
1.07884
-0.0322093
0.824851
-0.0306508
0.629766
-0.029202
0.480148
-0.0279237
0.365524
0.277982
-0.0268398
-0.149054
112.905
-0.123118
85.4733
-0.103513
64.7087
-0.0885917
48.993
-0.0772399
37.1054
-0.0686042
28.1121
-0.0620692
21.3097
-0.0571448
16.1629
-0.0534229
12.2675
-0.0505674
9.31871
-0.048309
7.08603
-0.0464474
5.39543
-0.0448115
4.11429
-0.0432568
3.1422
-0.0416561
2.4029
-0.0399236
1.83906
-0.0380424
1.40768
-0.0360599
1.07685
-0.0340748
0.822866
-0.0321935
0.627885
-0.0304912
0.478446
-0.0290212
0.364054
0.276755
-0.027794
-0.145732
112.873
-0.121889
85.4495
-0.10381
64.6906
-0.0900044
48.9792
-0.0794709
37.0949
-0.0714337
28.1041
-0.0653339
21.3036
-0.0607203
16.1583
-0.0572096
12.264
-0.0544765
9.31598
-0.0522523
7.0838
-0.05033
5.39351
-0.0485304
4.11249
-0.0467069
3.14038
-0.0447457
2.40094
-0.042593
1.83691
-0.0402764
1.40536
-0.0378876
1.07446
-0.0355541
0.820533
-0.0333928
0.625723
-0.0314763
0.476529
-0.0298475
0.362426
0.275411
-0.0285035
-0.142451
112.843
-0.120576
85.4276
-0.103929
64.6739
-0.091172
48.9664
-0.0814053
37.0852
-0.0739282
28.0966
-0.0682343
21.298
-0.0639092
16.154
-0.0605924
12.2606
-0.0579682
9.31335
-0.0557675
7.0816
-0.0537763
5.39152
-0.0518077
4.11052
-0.0497157
3.13829
-0.0474025
2.39862
-0.044849
1.83436
-0.0421276
1.40264
-0.0393707
1.07171
-0.0367296
0.817892
-0.034327
0.623321
-0.0322298
0.474432
-0.0304699
0.360666
0.273972
-0.0290306
-0.139221
112.817
-0.1192
85.4076
-0.103902
64.6586
-0.0921301
48.9546
-0.0830839
37.0761
-0.0761319
28.0897
-0.0708177
21.2926
-0.066761
16.1499
-0.0636228
12.2575
-0.0610957
9.31083
-0.0589096
7.07942
-0.0568433
5.38945
-0.0547034
4.10838
-0.0523464
3.13593
-0.0496937
2.39597
-0.0467626
1.83142
-0.0436689
1.39955
-0.0405816
1.06862
-0.0376709
0.814981
-0.0350611
0.620711
-0.0328118
0.472183
-0.0309432
0.358797
0.272454
-0.0294258
-0.136047
112.792
-0.117777
85.3893
-0.103753
64.6446
-0.0929095
48.9438
-0.0845419
37.0677
-0.0780838
28.0832
-0.0731255
21.2877
-0.0693193
16.1461
-0.066346
12.2545
-0.0639057
9.30839
-0.0617266
7.07724
-0.0595807
5.38731
-0.0572696
4.10607
-0.0546547
3.13331
-0.0516787
2.39299
-0.0483962
1.82814
-0.0449638
1.39612
-0.0415826
1.06524
-0.0384369
0.811835
-0.0356498
0.617924
-0.0332724
0.469806
-0.0313133
0.356838
0.270872
-0.0297312
-0.132936
112.77
-0.116323
85.3727
-0.103503
64.6318
-0.0935375
48.9338
-0.0858105
37.06
-0.0798178
28.0772
-0.075194
21.2831
-0.0716221
16.1426
-0.0688015
12.2517
-0.0664388
9.30602
-0.0642608
7.07506
-0.0620328
5.38508
-0.059553
4.10359
-0.0566901
3.13045
-0.0534101
2.38972
-0.0498046
1.82454
-0.0460677
1.39238
-0.0424277
1.0616
-0.0390788
0.808487
-0.0361405
0.614986
-0.0336555
0.467321
-0.0316209
0.354804
0.269237
-0.0299855
-0.129892
112.751
-0.114851
85.3577
-0.103172
64.6201
-0.0940388
48.9247
-0.0869182
37.0529
-0.0813653
28.0717
-0.0770568
21.2788
-0.0737045
16.1392
-0.0710258
12.249
-0.0687331
9.30373
-0.0665514
7.07288
-0.0642403
5.38277
-0.0615966
4.10094
-0.0584986
3.12735
-0.0549366
2.38615
-0.0510383
1.82064
-0.0470314
1.38837
-0.0431661
1.05773
-0.0396431
0.804964
-0.0365768
0.611919
-0.0340017
0.464745
-0.0319045
0.352707
0.267557
-0.030225
-0.12692
112.733
-0.113374
85.3441
-0.102779
64.6095
-0.0944357
48.9163
-0.0878905
37.0463
-0.0827543
28.0665
-0.0787437
21.2747
-0.0755981
16.1361
-0.0730515
12.2465
-0.0708221
9.3015
-0.0686333
7.07069
-0.0662399
5.38038
-0.0634393
4.09814
-0.0601213
3.12404
-0.0563018
2.38233
-0.0521423
1.81648
-0.0478999
1.38413
-0.0438415
1.05368
-0.0401712
0.801293
-0.0369978
0.608746
-0.0343476
0.462095
-0.0321982
0.350557
0.265841
-0.0304818
-0.124023
112.717
-0.111902
85.332
-0.102341
64.6
-0.0947494
48.9088
-0.0887517
37.0404
-0.0840116
28.0618
-0.0802833
21.271
-0.0773329
16.1331
-0.07491
12.2441
-0.0727384
9.29933
-0.0705402
7.06849
-0.0680667
5.3779
-0.0651179
4.09519
-0.0615975
3.12052
-0.0575468
2.37828
-0.053159
1.81209
-0.0487155
1.37969
-0.044495
1.04946
-0.0407023
0.797501
-0.0374401
0.605484
-0.0347275
0.459383
-0.0325338
0.348364
0.264093
-0.0307853
-0.121206
112.704
-0.110445
85.3213
-0.101872
64.5914
-0.094999
48.9019
-0.089524
37.0349
-0.0851614
28.0574
-0.0817017
21.2676
-0.078936
16.1304
-0.0766296
12.2418
-0.0745112
9.29721
-0.0723024
7.06628
-0.0697525
5.37535
-0.0666661
4.09211
-0.0629625
3.11681
-0.0587087
2.37403
-0.0541264
1.80751
-0.0495162
1.37508
-0.0451638
1.0451
-0.0412717
0.793609
-0.0379371
0.602149
-0.0351727
0.456618
-0.0329408
0.346132
0.262315
-0.0311635
-0.11847
112.692
-0.109015
85.3118
-0.101387
64.5838
-0.095203
48.8957
-0.0902285
37.0299
-0.0862271
28.0534
-0.0830238
21.2643
-0.0804339
16.1278
-0.0782375
12.2396
-0.0761689
9.29514
-0.0739495
7.06406
-0.071328
5.37273
-0.068116
4.0889
-0.0642501
3.11295
-0.0598227
2.3696
-0.0550803
1.80277
-0.0503378
1.37034
-0.0458832
1.04065
-0.041914
0.789639
-0.038522
0.598757
-0.0357155
0.453812
-0.0334513
0.343867
0.260513
-0.0316488
-0.11582
112.681
-0.107619
85.3036
-0.100901
64.577
-0.0953787
48.8902
-0.0908853
37.0254
-0.0872307
28.0498
-0.0842731
21.2614
-0.0818513
16.1253
-0.0797597
12.2375
-0.0777381
9.29312
-0.075509
7.06183
-0.0728219
5.37005
-0.0694977
4.08557
-0.0654917
3.10894
-0.0609211
2.36503
-0.0560536
1.7979
-0.0512133
1.3655
-0.0466862
1.03612
-0.0426625
0.785616
-0.0392287
0.595323
-0.0363904
0.450974
-0.0341007
0.341578
0.258689
-0.0322772
-0.113258
112.673
-0.106267
85.2966
-0.100427
64.5712
-0.095543
48.8853
-0.0915138
37.0214
-0.0881935
28.0465
-0.0854725
21.2587
-0.083212
16.1231
-0.0812209
12.2355
-0.0792447
9.29115
-0.0770076
7.0596
-0.0742619
5.3673
-0.0708399
4.08215
-0.0667169
3.10482
-0.0620343
2.36035
-0.0570771
1.79294
-0.0521739
1.36059
-0.0476049
1.03155
-0.0435509
0.781562
-0.0400926
0.591865
-0.037234
0.448115
-0.0349261
0.33927
0.25685
-0.0330863
-0.110785
112.666
-0.104966
85.2908
-0.0999765
64.5662
-0.0957113
48.881
-0.0921317
37.0178
-0.0891352
28.0435
-0.0866429
21.2562
-0.0845383
16.121
-0.0826443
12.2336
-0.0807124
9.28922
-0.07847
7.05736
-0.0756735
5.3645
-0.072169
4.07865
-0.0679528
3.1006
-0.0631897
2.35559
-0.0581788
1.78793
-0.0532481
1.35566
-0.0486692
1.02697
-0.0446112
0.777504
-0.0411489
0.588403
-0.038284
0.44525
-0.0359668
0.336953
0.255
-0.0341168
-0.108406
112.661
-0.103726
85.2861
-0.0995627
64.5621
-0.0958993
48.8774
-0.0927572
37.0147
-0.0900757
28.0408
-0.0878058
21.2539
-0.0858527
16.119
-0.0840531
12.2318
-0.0821655
9.28733
-0.0799209
7.05511
-0.0770823
5.36167
-0.0735111
4.07508
-0.0692259
3.09632
-0.0644139
2.35077
-0.0593855
1.7829
-0.0544633
1.35074
-0.0499085
1.02242
-0.0458756
0.773471
-0.0424339
0.584961
-0.0395803
0.442396
-0.0372659
0.334638
0.253148
-0.0354145
-0.106122
112.657
-0.102553
85.2825
-0.0991966
64.5587
-0.0961214
48.8743
-0.093407
37.0119
-0.0910333
28.0384
-0.0889808
21.2519
-0.0871757
16.1172
-0.0854688
12.2301
-0.0836261
9.28549
-0.0813834
7.05287
-0.0785117
5.35879
-0.0748902
4.07145
-0.0705601
3.09199
-0.0657305
2.34594
-0.0607209
1.77789
-0.0558438
1.34586
-0.0513494
1.01792
-0.0473737
0.769495
-0.0439812
0.581569
-0.0411623
0.439578
-0.0388674
0.332343
0.251308
-0.0370273
-0.103935
112.655
-0.101455
85.2801
-0.0988903
64.5561
-0.0963921
48.8718
-0.0940976
37.0097
-0.0920264
28.0363
-0.0901873
21.25
-0.0885277
16.1156
-0.0869127
12.2285
-0.0851159
9.28369
-0.0828797
7.05063
-0.0799846
5.3559
-0.0763292
4.0678
-0.0719784
3.08764
-0.0671617
2.34113
-0.0622071
1.77294
-0.0574111
1.34107
-0.0530161
1.01353
-0.0491318
0.765611
-0.0458221
0.578259
-0.0430674
0.436823
-0.0408142
0.33009
0.249495
-0.039001
-0.101848
112.655
-0.100439
85.2787
-0.0986533
64.5543
-0.0967238
48.8699
-0.0948435
37.0078
-0.093071
28.0346
-0.0914431
21.2484
-0.0899278
16.114
-0.0884045
12.2269
-0.0866556
9.28194
-0.0844307
7.04841
-0.0815219
5.35299
-0.0778489
4.06413
-0.0735008
3.08329
-0.0687263
2.33635
-0.0638627
1.76808
-0.0591827
1.33639
-0.0549292
1.00928
-0.0511735
0.761855
-0.0479828
0.575068
-0.0453315
0.434172
-0.0431539
0.327912
0.247732
-0.0413916
-0.0963014
112.651
-0.0935389
85.2759
-0.0913035
64.5521
-0.0893775
48.8679
-0.0877036
37.0061
-0.0862086
28.0331
-0.0848611
21.247
-0.0836015
16.1128
-0.0823075
12.2257
-0.080776
9.28041
-0.0787795
7.04641
-0.0761351
5.35035
-0.0727865
4.06078
-0.0688362
3.07934
-0.0645274
2.33204
-0.06018
1.76373
-0.0560186
1.33222
-0.0522742
1.00553
-0.0489775
0.758558
-0.0461807
0.572271
-0.0438777
0.431869
-0.0419858
0.326021
0.24619
-0.0404438
-0.0768415
112.648
-0.0748758
85.2739
-0.0732749
64.5505
-0.0718747
48.8665
-0.0706395
37.0049
-0.0695176
28.0319
-0.0684897
21.246
-0.0675134
16.1118
-0.0664959
12.2246
-0.0652781
9.27919
-0.063682
7.04482
-0.061568
5.34823
-0.0589026
4.05811
-0.0557815
3.07622
-0.0524054
2.32867
-0.0490346
1.76036
-0.045831
1.32902
-0.0429726
1.00267
-0.0404852
0.756071
-0.0383604
0.570147
-0.0366369
0.430145
-0.0352368
0.32462
0.245049
-0.0340954
-0.0612793
112.647
-0.0598739
85.2725
-0.058722
64.5494
-0.0576988
48.8655
-0.0567824
37.004
-0.055936
28.0311
-0.0551481
21.2452
-0.054389
16.1111
-0.0535879
12.2238
-0.0526208
9.27822
-0.0513485
7.04354
-0.0496637
5.34655
-0.0475471
4.056
-0.0450837
3.07375
-0.0424372
2.32602
-0.039817
1.75774
-0.0373473
1.32655
-0.035149
1.00047
-0.0332772
0.754199
-0.0316552
0.568525
-0.0303546
0.428845
-0.02932
0.323586
0.244207
-0.028478
-0.0488333
112.645
-0.0478142
85.2715
-0.0469745
64.5485
-0.0462176
48.8648
-0.0455303
37.0033
-0.0448859
28.0305
-0.0442774
21.2446
-0.0436838
16.1105
-0.0430515
12.2232
-0.0422836
9.27746
-0.0412714
7.04253
-0.039932
5.34521
-0.0382544
4.05432
-0.036312
3.07181
-0.0342374
2.32395
-0.0321959
1.7557
-0.0302909
1.32465
-0.0285895
0.998773
-0.0271777
0.752788
-0.0259426
0.56729
-0.0249509
0.427853
-0.02418
0.322815
0.243587
-0.02356
-0.0388909
112.644
-0.0381408
85.2708
-0.0375203
64.5479
-0.0369537
48.8642
-0.0364328
37.0027
-0.0359377
28.03
-0.0354645
21.2441
-0.0349981
16.11
-0.0344978
12.2227
-0.0338879
9.27685
-0.0330834
7.04173
-0.0320201
5.34414
-0.0306919
4.05299
-0.0291607
3.07028
-0.0275335
2.32232
-0.025939
1.7541
-0.0244667
1.32317
-0.0231459
0.997452
-0.0220698
0.751711
-0.0211351
0.566355
-0.0203743
0.427092
-0.0197911
0.322232
0.243129
-0.019333
-0.0309334
112.644
-0.0303548
85.2702
-0.0298763
64.5474
-0.0294369
48.8638
-0.0290307
37.0023
-0.028642
28.0296
-0.0282679
21.2438
-0.0278972
16.1096
-0.0274987
12.2223
-0.0270135
9.27636
-0.026375
7.04109
-0.0255332
5.3433
-0.0244848
4.05194
-0.023281
3.06908
-0.0220076
2.32105
-0.0207633
1.75286
-0.0196255
1.32204
-0.0186041
0.996431
-0.0177741
0.750882
-0.0170723
0.565653
-0.0164932
0.426513
-0.0160456
0.321784
0.242787
-0.0157032
-0.0247014
112.643
-0.0243293
85.2698
-0.024016
64.5471
-0.0237171
48.8635
-0.0234312
37.0021
-0.0231483
28.0293
-0.0228682
21.2435
-0.0225842
16.1093
-0.0222731
12.222
-0.0218892
9.27598
-0.0213802
7.04058
-0.0207068
5.34263
-0.0198676
4.0511
-0.0189054
3.06811
-0.0178904
2.32003
-0.0169002
1.75187
-0.0160007
1.32114
-0.015197
0.995627
-0.0145383
0.750223
-0.0139982
0.565113
-0.013551
0.426066
-0.0132003
0.321433
0.242523
-0.0129366
-0.0195386
112.643
-0.0191721
85.2694
-0.0188708
64.5468
-0.0185941
48.8632
-0.0183377
37.0018
-0.0180912
28.029
-0.0178525
21.2433
-0.0176149
16.1091
-0.0173601
12.2217
-0.0170521
9.27567
-0.01665
7.04018
-0.0161233
5.3421
-0.0154712
4.05045
-0.0147269
3.06737
-0.0139456
2.31925
-0.0131848
1.75111
-0.0124976
1.32045
-0.0118902
0.99502
-0.0113834
0.749716
-0.0109797
0.564709
-0.0106532
0.425739
-0.0103909
0.321171
0.242323
-0.0101912
-0.0132041
112.638
-0.00910303
85.2653
-0.00575822
64.5435
-0.00300991
48.8604
-0.000748196
36.9995
0.00112794
28.0272
0.00269682
21.2417
0.00402518
16.1078
0.00517868
12.2206
0.00622884
9.27462
0.00724325
7.03916
0.00826923
5.34108
0.00931619
4.0494
0.0103553
3.06633
0.0113397
2.31827
0.0122215
1.75022
0.0129643
1.31971
0.0135888
0.994395
0.0140767
0.749228
0.0144387
0.564347
0.0147382
0.42544
0.0149673
0.320942
0.242172
0.0151192
-0.0138684
112.632
-0.00956213
85.261
-0.0060509
64.54
-0.00316581
48.8575
-0.000791208
36.9972
0.00117931
28.0252
0.00282818
21.24
0.00422519
16.1064
0.00543862
12.2194
0.00654265
9.27352
0.00760744
7.0381
0.00868198
5.34
0.00977553
4.04831
0.0108574
3.06525
0.0118789
2.31724
0.0127911
1.74931
0.0135549
1.31894
0.0141932
0.993757
0.014697
0.748724
0.015061
0.563983
0.0153622
0.425139
0.0155993
0.320705
0.242011
0.0157597
-0.0145662
112.627
-0.0100445
85.2565
-0.00635842
64.5363
-0.00332982
48.8545
-0.00083676
36.9947
0.0012328
28.0231
0.00296566
21.2383
0.00443485
16.1049
0.00571125
12.2181
0.00687191
9.27235
0.00798953
7.03698
0.00911472
5.33888
0.0102566
4.04717
0.0113823
3.06412
0.0124413
2.31619
0.0133842
1.74837
0.0141691
1.31816
0.0148194
0.993106
0.0153376
0.748206
0.0157064
0.563614
0.0160065
0.424838
0.0162475
0.320464
0.241843
0.0164155
-0.0152991
112.621
-0.010551
85.2518
-0.00668146
64.5324
-0.00350235
48.8513
-0.000884975
36.9921
0.00128853
28.021
0.00310963
21.2365
0.00465466
16.1034
0.00599732
12.2168
0.00721751
9.27114
0.00839057
7.03581
0.0095687
5.3377
0.0107606
4.04598
0.0119315
3.06295
0.0130285
2.31509
0.0140019
1.7474
0.014808
1.31735
0.0154682
0.992446
0.0159981
0.747676
0.0163737
0.563239
0.0166704
0.424542
0.0169094
0.320225
0.24167
0.017083
-0.0160686
112.615
-0.0110832
85.2468
-0.00702109
64.5283
-0.00368383
48.848
-0.000935996
36.9893
0.00134665
28.0187
0.00326038
21.2346
0.00488514
16.1017
0.00629751
12.2153
0.00758036
9.26985
0.00881161
7.03458
0.0100451
5.33647
0.011289
4.04473
0.0125062
3.06173
0.0136417
2.31395
0.0146454
1.74639
0.0154723
1.31653
0.0161408
0.991778
0.0166789
0.747138
0.0170612
0.562856
0.0173533
0.424249
0.0175854
0.319993
0.241492
0.0177627
-0.0168772
112.608
-0.0116421
85.2415
-0.00737784
64.5241
-0.00387469
48.8445
-0.00098997
36.9864
0.00140722
28.0163
0.00341826
21.2326
0.00512684
16.1
0.00661258
12.2139
0.00796136
9.2685
0.00925377
7.03329
0.0105451
5.33518
0.011843
4.04343
0.013108
3.06047
0.0142824
2.31278
0.0153162
1.74536
0.0161635
1.31568
0.0168389
0.991102
0.0173815
0.746595
0.017769
0.562469
0.018057
0.423961
0.01828
0.31977
0.241316
0.0184562
-0.017726
112.602
-0.0122292
85.2361
-0.0077528
64.5196
-0.00407544
48.8408
-0.00104703
36.9834
0.00147035
28.0138
0.00358359
21.2304
0.00538034
16.0982
0.00694329
12.2123
0.00836152
9.26708
0.0097182
7.03193
0.0110701
5.33382
0.0124241
4.04208
0.0137382
3.05915
0.0149521
2.31156
0.0160159
1.74429
0.0168831
1.31481
0.0175647
0.99042
0.0181086
0.746051
0.0184989
0.562078
0.0187838
0.423676
0.0189972
0.319556
0.241148
0.0191655
-0.0186178
112.595
-0.0128459
85.2303
-0.0081465
64.5149
-0.00428657
48.837
-0.00110738
36.9802
0.0015362
28.0111
0.00375681
21.2282
0.00564622
16.0963
0.00729051
12.2106
0.00878185
9.26559
0.010206
7.0305
0.0116212
5.33241
0.0130335
4.04067
0.0143981
3.05779
0.0156523
2.31031
0.0167458
1.7432
0.0176325
1.31392
0.01832
0.989733
0.0188629
0.745508
0.0192535
0.561688
0.019535
0.423395
0.0197378
0.319354
0.240993
0.0198926
-0.0195542
112.587
-0.0134936
85.2242
-0.00856035
64.51
-0.00450858
48.8329
-0.00117115
36.9769
0.00160491
28.0083
0.00393829
21.2259
0.00592519
16.0944
0.00765505
12.2089
0.00922333
9.26403
0.0107184
7.02901
0.0121997
5.33093
0.0136723
4.0392
0.015089
3.05637
0.0163839
2.30902
0.0175069
1.74208
0.0184129
1.31302
0.0191063
0.989039
0.0196465
0.744968
0.0200345
0.561299
0.0203112
0.423118
0.0205015
0.319163
0.240855
0.0206397
-0.0205376
112.579
-0.0141738
85.2179
-0.00899508
64.5048
-0.00474205
48.8287
-0.00123855
36.9734
0.00167656
28.0054
0.00412841
21.2234
0.00621782
16.0923
0.00803778
12.2071
0.00968703
9.26238
0.0112565
7.02744
0.0128067
5.32938
0.0143417
4.03766
0.0158115
3.0549
0.0171475
2.30768
0.0182996
1.74093
0.0192245
1.31209
0.0199237
0.98834
0.0204601
0.744432
0.0208425
0.560917
0.0211122
0.422848
0.0212882
0.318987
0.240733
0.0214097
-0.0215703
112.571
-0.0148881
85.2112
-0.00945197
64.4994
-0.00498756
48.8242
-0.00130973
36.9697
0.00175136
28.0024
0.00432762
21.2209
0.0065248
16.0901
0.00843954
12.2052
0.0101739
9.26064
0.0118213
7.02579
0.0134433
5.32775
0.0150424
4.03606
0.0165664
3.05338
0.0179435
2.3063
0.0191238
1.73975
0.0200668
1.31115
0.0207715
0.987635
0.0213029
0.7439
0.0216764
0.560543
0.0219373
0.422587
0.0221
0.318824
0.240627
0.0222059
-0.0226552
112.563
-0.0156385
85.2042
-0.00993163
64.4936
-0.0052457
48.8195
-0.00138495
36.9658
0.00182938
27.9992
0.00453636
21.2182
0.00684682
16.0878
0.00886121
12.2032
0.010685
9.25882
0.012414
7.02406
0.0141105
5.32606
0.0157755
4.0344
0.0173542
3.0518
0.0187719
2.30488
0.0199792
1.73854
0.0209388
1.31019
0.021648
0.986926
0.0221731
0.743375
0.022535
0.560181
0.0227839
0.422338
0.0229384
0.31867
0.240535
0.0230304
-0.0237941
112.554
-0.0164267
85.1968
-0.0104359
64.4877
-0.00551709
48.8146
-0.00146434
36.9618
0.00191081
27.9958
0.00475503
21.2153
0.00718454
16.0853
0.00930374
12.201
0.0112214
9.2569
0.0130357
7.02225
0.0148094
5.32428
0.0165417
4.03266
0.0181754
3.05017
0.019633
2.30343
0.0208653
1.73731
0.0218394
1.30922
0.0225515
0.986214
0.0230688
0.742858
0.0234174
0.559833
0.0236499
0.422106
0.0237994
0.31852
0.240453
0.0238819
-0.0249903
112.544
-0.0172543
85.1891
-0.0109654
64.4814
-0.00580243
48.8094
-0.0015482
36.9575
0.00199578
27.9922
0.00498412
21.2123
0.00753874
16.0828
0.00976807
12.1988
0.0117843