/*--------------------------------*- C++ -*----------------------------------*\
  =========                 |
  \\      /  F ield         | OpenFOAM: The Open Source CFD Toolbox
   \\    /   O peration     | Website:  https://openfoam.org
    \\  /    A nd           | Version:  7
     \\/     M anipulation  |
\*---------------------------------------------------------------------------*/
FoamFile
{
    version     2.0;
    format      ascii;
    class       volVectorField;
    location    "50";
    object      U;
}
// * * * * * * * * * * * * * * * * * * * * * * * * * * * * * * * * * * * * * //

dimensions      [0 1 -1 0 0 0 0];

internalField   nonuniform List<vector> 
12842
(
(15.5821 1.09012 5.37728e-19)
(15.5833 1.09356 2.83625e-19)
(15.5843 1.09646 8.61602e-20)
(15.5854 1.10048 -2.20158e-19)
(15.5865 1.10643 8.87216e-19)
(15.5871 1.11509 0)
(15.5868 1.12742 0)
(15.585 1.14457 5.79745e-20)
(15.5808 1.16789 -5.06353e-19)
(15.5729 1.19887 -8.31308e-21)
(15.5597 1.23901 -1.36994e-19)
(15.5391 1.28964 -8.00015e-21)
(15.5089 1.35174 -1.37239e-20)
(15.4668 1.42558 2.46429e-20)
(15.4112 1.51055 -3.11258e-20)
(15.3412 1.605 -1.01992e-19)
(15.2576 1.70625 -1.11141e-19)
(15.1626 1.81074 0)
(15.0599 1.9145 1.38245e-20)
(14.954 2.01367 9.65881e-20)
(14.8499 2.10488 1.49158e-20)
(14.7514 2.1864 -6.83885e-20)
(14.6629 2.25466 5.25003e-20)
(15.5824 1.08997 -4.31332e-19)
(15.5843 1.09269 0)
(15.5861 1.09527 9.95497e-19)
(15.5884 1.09908 -6.09362e-19)
(15.5912 1.10494 -6.97805e-19)
(15.5942 1.11368 0)
(15.597 1.12638 1.10821e-18)
(15.5992 1.14435 0)
(15.6 1.16918 9.01136e-19)
(15.5982 1.20261 8.64677e-20)
(15.5922 1.24645 2.6306e-19)
(15.5797 1.30234 3.80582e-19)
(15.5585 1.37143 1.29472e-20)
(15.5257 1.45401 -1.01553e-19)
(15.4793 1.54919 0)
(15.4179 1.6548 1.03881e-19)
(15.3417 1.76735 1.54295e-19)
(15.2524 1.88246 -1.71983e-19)
(15.1535 1.99536 0)
(15.0497 2.10175 -1.21786e-19)
(14.9462 2.1979 -1.80377e-19)
(14.8471 2.2827 1.7656e-19)
(14.7575 2.35084 -1.81205e-19)
(15.5827 1.08973 0)
(15.585 1.09168 0)
(15.5875 1.09385 1.56199e-19)
(15.5908 1.09729 3.42867e-18)
(15.5952 1.1028 0)
(15.6003 1.11128 0)
(15.606 1.12391 2.61043e-19)
(15.6121 1.14215 -1.04806e-18)
(15.6176 1.16778 -4.192e-19)
(15.6217 1.20279 -3.77111e-19)
(15.6227 1.24929 -6.75256e-19)
(15.6184 1.30922 -3.67433e-19)
(15.6062 1.38397 -6.73165e-20)
(15.583 1.47391 1.8522e-19)
(15.5461 1.57802 0)
(15.4937 1.6937 -5.30641e-21)
(15.4254 1.81685 6.78279e-21)
(15.3426 1.94234 1.03612e-19)
(15.2487 2.06467 9.59255e-20)
(15.1482 2.17905 -1.00813e-19)
(15.0468 2.28133 1.29694e-19)
(14.9488 2.37094 0)
(14.8598 2.44075 6.43783e-20)
(15.583 1.08939 -1.49464e-19)
(15.5855 1.09059 4.64589e-19)
(15.5885 1.0923 -1.43558e-18)
(15.5927 1.09523 -5.32466e-18)
(15.5984 1.1002 4.78755e-19)
(15.6055 1.10815 -1.62544e-18)
(15.6139 1.12033 -9.92164e-20)
(15.6235 1.13836 1.02381e-18)
(15.6336 1.16417 1.66701e-18)
(15.6434 1.19999 -9.60857e-19)
(15.6512 1.2482 1.66694e-18)
(15.655 1.31107 -1.70481e-19)
(15.6519 1.39027 2.21975e-19)
(15.6385 1.48632 7.05407e-19)
(15.6116 1.59812 -7.50183e-20)
(15.5688 1.72281 9.64516e-20)
(15.5093 1.85576 9.10789e-21)
(15.4341 1.99119 2.61551e-20)
(15.3464 2.12297 -6.18732e-20)
(15.2508 2.24583 4.09379e-20)
(15.153 2.35514 -3.90865e-20)
(15.0576 2.45077 -5.35288e-20)
(14.9707 2.5238 1.15084e-19)
(15.5833 1.08896 -1.48674e-18)
(15.5858 1.0895 0)
(15.5891 1.09073 2.31495e-19)
(15.5941 1.09307 1.87885e-18)
(15.601 1.09734 1.88767e-19)
(15.6097 1.10449 4.33959e-18)
(15.6206 1.11589 1.9297e-19)
(15.6335 1.13326 -2.73527e-18)
(15.6479 1.15868 -1.86121e-18)
(15.6631 1.19458 1.20219e-18)
(15.6777 1.24363 -1.86947e-18)
(15.6896 1.30842 -1.34649e-18)
(15.6957 1.39093 2.86303e-19)
(15.6924 1.49189 -1.61319e-18)
(15.6761 1.61025 -6.14065e-19)
(15.6438 1.74294 3.84945e-19)
(15.5941 1.88491 0)
(15.5277 2.02986 -4.52348e-20)
(15.4476 2.17104 0)
(15.3583 2.30273 6.63089e-20)
(15.2656 2.41977 1.76394e-20)
(15.174 2.52238 3.06588e-20)
(15.0903 2.59983 -2.33266e-20)
(15.5835 1.08847 1.33135e-18)
(15.5858 1.08847 0)
(15.5895 1.08923 0)
(15.595 1.09091 2.93444e-18)
(15.6029 1.09434 -2.20372e-18)
(15.6131 1.1005 -2.49996e-18)
(15.6261 1.11083 -3.73658e-18)
(15.642 1.12713 3.00801e-18)
(15.6603 1.15161 0)
(15.6807 1.18688 1.59455e-18)
(15.7018 1.23588 1.7149e-18)
(15.7217 1.3015 6.72015e-19)
(15.7372 1.38611 0)
(15.7444 1.49069 9.03792e-19)
(15.7392 1.61434 5.14372e-19)
(15.7183 1.7539 -2.65944e-19)
(15.6795 1.90401 -6.26979e-20)
(15.6233 2.05793 4.54538e-19)
(15.5522 2.20836 0)
(15.4706 2.34916 -5.96282e-20)
(15.3845 2.47453 6.8302e-20)
(15.298 2.58503 5.28493e-21)
(15.2186 2.66797 -2.51656e-20)
(15.5837 1.08795 -1.43985e-19)
(15.5857 1.08752 0)
(15.5896 1.08786 0)
(15.5955 1.08885 -2.90378e-18)
(15.6041 1.09137 2.53096e-18)
(15.6155 1.09637 -3.21658e-19)
(15.6304 1.10537 2.21155e-18)
(15.6488 1.12025 2.11973e-19)
(15.6708 1.14331 -2.78359e-19)
(15.6959 1.1773 -1.7919e-18)
(15.7233 1.22537 -1.99788e-19)
(15.7509 1.29078 1.43553e-18)
(15.7756 1.37624 0)
(15.7935 1.4831 -1.29902e-18)
(15.7999 1.61067 1.07718e-19)
(15.791 1.75584 -1.38664e-19)
(15.7642 1.91306 4.09504e-19)
(15.7195 2.07525 -2.64975e-19)
(15.6589 2.23461 -3.72547e-19)
(15.5866 2.38463 -7.14573e-20)
(15.5085 2.51878 1.2097e-20)
(15.4285 2.63793 -5.99061e-20)
(15.3546 2.72728 -2.26543e-20)
(15.5837 1.08744 0)
(15.5855 1.08669 -1.52413e-19)
(15.5895 1.08662 1.80801e-18)
(15.5957 1.08691 -5.80413e-20)
(15.6049 1.08847 -2.61733e-18)
(15.6173 1.09222 4.25779e-19)
(15.6337 1.09973 -8.14796e-20)
(15.6543 1.11292 -1.78318e-18)
(15.6794 1.13411 0)
(15.7088 1.16617 -2.19364e-18)
(15.7419 1.21243 1.81746e-19)
(15.7769 1.27645 1.17353e-19)
(15.8109 1.36137 0)
(15.8396 1.46895 1.26993e-18)
(15.8582 1.59882 -1.0527e-18)
(15.8621 1.74808 0)
(15.8485 1.91113 -4.02129e-19)
(15.8166 2.08071 0)
(15.7682 2.24857 2.9584e-19)
(15.7069 2.4079 0)
(15.6385 2.55126 -1.02085e-19)
(15.5666 2.67999 7.10987e-20)
(15.4993 2.7767 8.25693e-20)
(15.5838 1.0869 0)
(15.5853 1.08595 0)
(15.5892 1.08565 2.61377e-21)
(15.5953 1.0854 -1.1968e-19)
(15.6048 1.08615 2.96092e-18)
(15.6177 1.08878 2.47585e-18)
(15.6352 1.0949 0)
(15.6575 1.10649 1.67198e-18)
(15.685 1.12591 0)
(15.7176 1.15613 4.4775e-18)
(15.7549 1.2006 1.68911e-18)
(15.7956 1.26311 -1.23802e-18)
(15.8366 1.34711 -1.24163e-19)
(15.8738 1.45472 0)
(15.9022 1.58586 1.12169e-18)
(15.9171 1.73781 8.73658e-19)
(15.915 1.90497 -7.15217e-20)
(15.8948 2.07998 5.33524e-19)
(15.8579 2.25423 4.45588e-19)
(15.8073 2.42075 0)
(15.7487 2.57126 8.06244e-20)
(15.6851 2.70776 8.80567e-21)
(15.6248 2.81084 -4.60875e-20)
(15.5838 1.08636 -1.61914e-20)
(15.585 1.08532 1.88012e-18)
(15.5889 1.08483 -1.66394e-18)
(15.5951 1.08413 0)
(15.6048 1.08421 5.3451e-20)
(15.6182 1.08597 7.56426e-20)
(15.6365 1.09102 -2.26406e-18)
(15.6601 1.10138 0)
(15.6894 1.11941 0)
(15.7245 1.14812 -2.2436e-18)
(15.7652 1.19105 -1.78823e-18)
(15.8103 1.25217 -5.05586e-20)
(15.8571 1.33515 1.31121e-18)
(15.9013 1.44238 -4.30358e-20)
(15.9379 1.57405 -1.60426e-19)
(15.9619 1.72756 1.91906e-19)
(15.9697 1.89735 -5.81257e-19)
(15.9598 2.07604 -4.97888e-19)
(15.9331 2.2548 -5.03058e-19)
(15.8924 2.42663 -3.62961e-19)
(15.8431 2.58254 9.95348e-20)
(15.7876 2.72504 -4.24832e-19)
(15.7345 2.83321 7.18662e-20)
(15.5837 1.08585 1.78663e-18)
(15.5848 1.08478 -2.11578e-18)
(15.5887 1.08411 4.99643e-20)
(15.5948 1.08297 1.69556e-18)
(15.6048 1.08241 -8.17485e-20)
(15.6186 1.08334 -2.52601e-18)
(15.6377 1.08736 4.29724e-18)
(15.6624 1.09653 1.15574e-19)
(15.6933 1.11321 -8.4347e-20)
(15.7308 1.14041 -2.41364e-18)
(15.7746 1.18172 6.74639e-20)
(15.824 1.24124 -1.65088e-18)
(15.8763 1.3229 -1.16666e-18)
(15.9274 1.42932 0)
(15.9721 1.56093 1.37767e-18)
(16.0055 1.71532 -1.92619e-18)
(16.0237 1.88699 -1.51375e-19)
(16.0247 2.0686 5.4682e-19)
(16.0094 2.25115 -9.41865e-22)
(15.98 2.42767 4.6056e-19)
(15.9416 2.58852 0)
(15.896 2.73665 1.34219e-19)
(15.8517 2.84971 0)
(15.5836 1.08539 -2.87068e-18)
(15.5845 1.08432 -2.03603e-18)
(15.5884 1.08348 8.36392e-20)
(15.5945 1.08193 -3.33185e-18)
(15.6047 1.08074 1.55881e-18)
(15.6188 1.08087 -7.31939e-20)
(15.6386 1.0839 -2.19296e-18)
(15.6644 1.09191 3.29468e-20)
(15.6968 1.10724 -9.70708e-20)
(15.7364 1.1329 2.48353e-18)
(15.7833 1.1725 0)
(15.8367 1.23026 1.50618e-18)
(15.8943 1.31029 1.1708e-19)
(15.9522 1.41548 -5.70433e-20)
(16.0051 1.54646 -1.42387e-18)
(16.0482 1.70105 -5.12577e-21)
(16.0772 1.87383 5.35324e-19)
(16.0901 2.05756 -9.06694e-19)
(16.0874 2.24307 0)
(16.0706 2.42353 -3.48313e-19)
(16.0447 2.58863 4.42974e-19)
(16.0106 2.74183 0)
(15.9767 2.85943 -2.13379e-19)
(15.5835 1.08498 9.98348e-19)
(15.5843 1.08394 2.37438e-21)
(15.5881 1.08293 8.34955e-20)
(15.5942 1.081 1.60777e-18)
(15.6045 1.07921 -3.05247e-18)
(15.6189 1.07855 1.2889e-20)
(15.6394 1.0806 3.20193e-20)
(15.6661 1.08747 1.94037e-18)
(15.6999 1.10145 -4.44121e-20)
(15.7415 1.12554 0)
(15.7911 1.16333 2.05258e-18)
(15.8484 1.21915 4.78544e-20)
(15.9112 1.29726 4.60849e-20)
(15.9758 1.40078 1.05165e-20)
(16.0371 1.53058 -1.44399e-19)
(16.0902 1.68467 1.10237e-18)
(16.1307 1.85775 -6.42545e-19)
(16.1564 2.0427 -1.12717e-19)
(16.1674 2.23022 -1.91182e-19)
(16.1646 2.41367 5.01378e-19)
(16.1527 2.58209 -3.07933e-19)
(16.1316 2.73948 6.34687e-19)
(16.1096 2.86106 -3.94774e-19)
(15.5833 1.08462 1.00469e-18)
(15.5841 1.08362 1.96734e-18)
(15.5878 1.08246 7.05676e-21)
(15.5939 1.08017 1.71586e-18)
(15.6042 1.07778 3.08734e-18)
(15.619 1.07637 -1.29854e-20)
(15.6399 1.07746 -3.25761e-20)
(15.6675 1.0832 3.82133e-20)
(15.7026 1.09581 -1.60018e-18)
(15.746 1.11828 1.33618e-18)
(15.7982 1.15416 -2.15755e-18)
(15.8593 1.20783 -1.70354e-18)
(15.9273 1.2837 1.40674e-18)
(15.9986 1.3851 0)
(16.0684 1.51313 8.45644e-19)
(16.1317 1.66599 0)
(16.1843 1.83847 8.50308e-19)
(16.2237 2.02363 5.1308e-19)
(16.2494 2.21204 -5.98348e-21)
(16.262 2.39728 -5.74009e-19)
(16.2655 2.56781 -5.929e-21)
(16.259 2.72814 1.28896e-20)
(16.2503 2.8528 -1.66835e-19)
(15.5832 1.08433 -3.13558e-20)
(15.5839 1.08337 1.83427e-20)
(15.5876 1.08206 -6.82528e-21)
(15.5935 1.07943 -1.7155e-18)
(15.6039 1.07647 -1.53731e-18)
(15.6189 1.07432 0)
(15.6403 1.07445 2.12259e-20)
(15.6687 1.07906 -1.9716e-18)
(15.7049 1.09029 -3.22457e-20)
(15.75 1.11108 -1.33671e-18)
(15.8048 1.14493 1.1358e-18)
(15.8694 1.19624 2.65785e-18)
(15.9424 1.26954 -1.35766e-18)
(16.0205 1.36835 1.08546e-18)
(16.099 1.49394 9.98203e-20)
(16.173 1.64474 1.02799e-20)
(16.2383 1.81564 -5.01361e-20)
(16.2921 1.99984 -1.68469e-19)
(16.3336 2.1878 1.12913e-19)
(16.3626 2.37337 -1.94323e-19)
(16.3828 2.54444 -1.57287e-20)
(16.3923 2.70606 1.47565e-19)
(16.3982 2.83254 0)
(15.583 1.08409 -4.3666e-20)
(15.5837 1.08316 0)
(15.5873 1.08173 0)
(15.5932 1.07877 -1.72429e-18)
(15.6036 1.07525 -1.58148e-18)
(15.6187 1.07238 1.39614e-18)
(15.6406 1.07157 1.68003e-20)
(15.6697 1.07504 -1.7918e-20)
(15.7069 1.08488 1.65503e-18)
(15.7536 1.10392 -2.43869e-20)
(15.8107 1.1356 5.84234e-20)
(15.8789 1.18433 -9.04352e-19)
(15.9568 1.2547 0)
(16.0416 1.35038 -1.15256e-18)
(16.1289 1.47284 -1.82015e-18)
(16.214 1.62068 -7.50602e-19)
(16.2925 1.78885 -4.60319e-19)
(16.3614 1.97074 0)
(16.4196 2.15664 0)
(16.4662 2.34075 3.37103e-19)
(16.5041 2.51045 2.22345e-19)
(16.5308 2.67127 -4.63465e-19)
(16.5524 2.79787 0)
(15.5828 1.08391 -1.08351e-18)
(15.5836 1.083 9.18508e-21)
(15.587 1.08145 -3.28294e-21)
(15.5928 1.07818 1.71185e-18)
(15.6032 1.07413 3.14602e-18)
(15.6185 1.07055 -2.78279e-18)
(15.6407 1.06879 -1.7033e-20)
(15.6704 1.07113 -1.82099e-20)
(15.7086 1.07952 2.39641e-20)
(15.7568 1.09676 0)
(15.8162 1.12613 -1.13086e-18)
(15.8877 1.17203 9.52864e-19)
(15.9705 1.23906 0)
(16.0621 1.33106 0)
(16.1584 1.44959 8.66625e-19)
(16.2548 1.59345 4.98807e-20)
(16.347 1.7576 5.22633e-19)
(16.4317 1.93561 4.04122e-19)
(16.5073 2.11759 -5.78302e-19)
(16.5721 2.29809 -2.03049e-19)
(16.6286 2.4641 7.9324e-19)
(16.6731 2.62158 -7.26024e-19)
(16.7112 2.7462 4.71888e-19)
(15.5826 1.08377 5.25118e-19)
(15.5834 1.08288 9.23151e-19)
(15.5868 1.08122 8.94439e-21)
(15.5924 1.07765 -1.1833e-20)
(15.6028 1.07308 -1.58648e-18)
(15.6182 1.06881 1.4158e-18)
(15.6407 1.06611 -1.1099e-20)
(15.671 1.06729 -3.84704e-21)
(15.7101 1.07422 2.43112e-20)
(15.7596 1.08957 1.26801e-20)
(15.8211 1.11648 -1.66407e-20)
(15.8959 1.15927 -9.52884e-19)
(15.9834 1.22256 8.24598e-19)
(16.0818 1.31023 -3.63483e-20)
(16.1872 1.42397 0)
(16.2952 1.5627 -8.6375e-20)
(16.4014 1.72136 6.73709e-20)
(16.5023 1.89367 -4.06576e-19)
(16.5957 2.06955 7.36494e-19)
(16.6793 2.24397 4.29943e-19)
(16.7547 2.40361 -2.88436e-19)
(16.8172 2.55481 -4.19966e-19)
(16.8718 2.67499 5.36527e-19)
(15.5824 1.08367 -1.27129e-20)
(15.5832 1.08279 -9.30168e-19)
(15.5865 1.08103 0)
(15.592 1.07718 0)
(15.6023 1.07211 0)
(15.6178 1.06715 0)
(15.6406 1.06351 1.12292e-20)
(15.6714 1.06353 -5.44594e-21)
(15.7112 1.06895 -1.23068e-20)
(15.762 1.08232 1.28793e-20)
(15.8255 1.1066 -1.69063e-20)
(15.9034 1.14601 0)
(15.9956 1.20508 -1.61273e-18)
(16.1007 1.28775 4.56149e-20)
(16.2152 1.39573 -9.53223e-20)
(16.3349 1.52803 8.81249e-19)
(16.4553 1.67955 -7.09863e-20)
(16.5725 1.84412 1.19714e-19)
(16.6839 2.01147 -1.34698e-19)
(16.7862 2.17703 2.40934e-19)
(16.8801 2.32737 -3.39331e-19)
(16.9603 2.46912 0)
(17.0308 2.5821 3.16831e-19)
(15.5822 1.08362 -1.03356e-18)
(15.5831 1.08273 -4.6044e-19)
(15.5863 1.08089 -6.15994e-21)
(15.5916 1.07677 8.77953e-19)
(15.6018 1.07121 8.06659e-19)
(15.6173 1.06556 6.67261e-21)
(15.6403 1.06098 -1.26418e-18)
(15.6715 1.05982 1.06489e-18)
(15.7121 1.06368 8.61769e-19)
(15.7641 1.07498 0)
(15.8294 1.09647 2.17381e-20)
(15.9102 1.13218 -1.03721e-18)
(16.007 1.18654 8.45103e-19)
(16.1187 1.26346 6.38978e-19)
(16.2422 1.36461 5.41588e-19)
(16.3735 1.48907 0)
(16.508 1.63161 0)
(16.6415 1.78618 -4.87149e-19)
(16.7704 1.94235 -5.23542e-19)
(16.8906 2.09609 2.62301e-19)
(17.0022 2.2341 1.84046e-19)
(17.0987 2.3632 2.57124e-19)
(17.1838 2.46616 -3.52143e-19)
(15.582 1.08359 5.17108e-19)
(15.583 1.08269 4.62123e-19)
(15.586 1.08077 -4.52474e-21)
(15.5912 1.07639 7.79393e-21)
(15.6014 1.07035 -8.05796e-19)
(15.6168 1.06402 -7.23125e-19)
(15.64 1.05849 6.12435e-19)
(15.6716 1.05613 -1.05382e-18)
(15.7127 1.0584 -8.57073e-19)
(15.7657 1.06754 -2.07974e-20)
(15.8327 1.08603 0)
(15.9163 1.11771 1.00789e-18)
(16.0174 1.16682 8.47933e-19)
(16.1355 1.23717 -6.7744e-19)
(16.2678 1.33035 -4.65051e-19)
(16.4106 1.44541 -2.1959e-19)
(16.5588 1.57699 -1.8351e-19)
(16.7078 1.7192 1.00148e-18)
(16.8534 1.86147 0)
(16.9902 2.00047 0)
(17.1176 2.12324 2.11609e-19)
(17.2285 2.23678 -5.23582e-19)
(17.3259 2.32705 -3.85608e-19)
(15.5819 1.08361 -4.91441e-19)
(15.5829 1.0827 0)
(15.5858 1.08072 0)
(15.5908 1.07612 -1.75791e-18)
(15.6007 1.06961 8.06102e-19)
(15.6161 1.0626 7.38919e-19)
(15.6394 1.0561 -4.52472e-21)
(15.6713 1.05249 5.25048e-19)
(15.713 1.05309 2.05782e-20)
(15.7669 1.05996 -7.47033e-19)
(15.8354 1.07529 2.22602e-20)
(15.9216 1.10261 -2.9202e-20)
(16.0268 1.14592 -8.47328e-19)
(16.151 1.20886 7.08007e-19)
(16.2918 1.29283 5.33284e-19)
(16.4455 1.39687 -4.64401e-19)
(16.6067 1.51544 4.20602e-19)
(16.7702 1.64286 -5.1407e-19)
(16.9308 1.76858 0)
(17.0821 1.89007 0)
(17.2229 1.99508 -1.99353e-19)
(17.3452 2.09071 1.47788e-19)
(17.4523 2.16606 -4.15858e-19)
(15.5817 1.08358 1.30561e-20)
(15.5828 1.08263 -4.78085e-19)
(15.5856 1.08053 0)
(15.5905 1.07565 4.38393e-19)
(15.6004 1.06868 -1.63007e-18)
(15.6159 1.06102 6.79328e-21)
(15.6392 1.05362 -1.38219e-20)
(15.6712 1.04883 -5.43019e-19)
(15.7133 1.04777 1.26672e-20)
(15.7679 1.05226 7.48293e-19)
(15.8377 1.06416 -1.75553e-20)
(15.9262 1.08671 -5.02493e-19)
(16.0351 1.12357 -5.5757e-20)
(16.165 1.17815 -6.66645e-19)
(16.3136 1.25162 -6.13427e-19)
(16.4774 1.34296 4.05249e-20)
(16.6505 1.44652 0)
(16.8269 1.55692 -7.38912e-20)
(17.0003 1.6638 9.67311e-20)
(17.1636 1.76561 0)
(17.3146 1.85103 2.18999e-19)
(17.4452 1.92722 -1.49851e-19)
(17.5586 1.98609 0)
(15.5816 1.08383 4.91242e-19)
(15.5826 1.08291 4.79446e-19)
(15.5853 1.08095 0)
(15.5899 1.07601 4.4226e-19)
(15.5996 1.06872 1.64947e-18)
(15.6149 1.06046 7.47745e-19)
(15.6383 1.0521 1.29066e-18)
(15.6706 1.0461 0)
(15.7131 1.04351 9.00927e-19)
(15.7684 1.04596 -7.49657e-19)
(15.8393 1.05487 6.26086e-19)
(15.9297 1.07297 5.30907e-19)
(16.0418 1.10344 -7.97908e-21)
(16.1766 1.14924 1.04468e-20)
(16.3322 1.21114 -6.04012e-19)
(16.505 1.28796 4.73298e-19)
(16.6887 1.37387 0)
(16.8762 1.46405 2.88202e-19)
(17.0602 1.54862 0)
(17.2326 1.62735 0)
(17.3908 1.69035 -2.16679e-19)
(17.5263 1.74502 -4.75557e-19)
(17.6428 1.78565 4.15499e-19)
(15.5815 1.08394 0)
(15.5826 1.08304 -1.86108e-23)
(15.5851 1.08109 6.033e-23)
(15.5897 1.07609 -4.47489e-19)
(15.5993 1.06859 -4.09457e-19)
(15.6146 1.05997 -7.47023e-19)
(15.638 1.05101 -6.47249e-19)
(15.6703 1.04415 -6.11476e-22)
(15.7131 1.04032 -4.47867e-19)
(15.7687 1.04095 -1.99086e-21)
(15.8403 1.04703 3.01847e-21)
(15.9322 1.0608 0)
(16.0468 1.08481 8.05448e-21)
(16.1857 1.12147 -1.0542e-20)
(16.3472 1.171 8.86357e-19)
(16.5277 1.232 2.7981e-20)
(16.7199 1.29857 0)
(16.9161 1.36659 8.39605e-20)
(17.1075 1.42704 -1.01604e-19)
(17.2854 1.48112 0)
(17.4469 1.52082 0)
(17.5837 1.55366 3.08384e-19)
(17.7002 1.57598 -2.1769e-19)
(15.5814 1.08405 4.75441e-19)
(15.5825 1.08316 4.93306e-19)
(15.585 1.08122 0)
(15.5895 1.07615 4.47594e-19)
(15.5991 1.06844 -4.17791e-19)
(15.6143 1.05946 -7.62418e-19)
(15.6377 1.04991 6.58801e-19)
(15.6702 1.04222 -5.51292e-19)
(15.7131 1.03715 -4.52292e-19)
(15.7692 1.03594 1.12868e-18)
(15.8414 1.03912 -6.29112e-19)
(15.9346 1.04843 -5.35141e-19)
(16.0514 1.06576 -4.54476e-19)
(16.1937 1.09292 0)
(16.36 1.12955 -3.04567e-19)
(16.5463 1.1741 4.94536e-19)
(16.7446 1.22078 2.63056e-20)
(16.946 1.26635 -3.23649e-19)
(17.141 1.30301 0)
(17.3202 1.33338 0)
(17.4809 1.35139 0)
(17.6155 1.36446 -4.65692e-19)
(17.7292 1.37041 4.20531e-19)
(15.5813 1.08415 -4.75661e-19)
(15.5825 1.08328 4.6389e-21)
(15.5849 1.08135 0)
(15.5893 1.0762 -4.57026e-19)
(15.5988 1.06829 -4.55297e-23)
(15.614 1.05896 1.14768e-18)
(15.6374 1.04882 -1.3231e-18)
(15.67 1.0403 1.66106e-18)
(15.7132 1.034 -5.12182e-22)
(15.7696 1.03092 -3.75887e-19)
(15.8424 1.03117 -3.18736e-19)
(15.9366 1.03592 5.36337e-19)
(16.0551 1.0464 4.48995e-19)
(16.2002 1.06376 -3.78277e-19)
(16.37 1.0871 5.46067e-21)
(16.5602 1.11479 -4.99821e-19)
(16.7621 1.14136 0)
(16.9656 1.16467 0)
(17.1607 1.17843 2.1653e-19)
(17.3379 1.18656 0)
(17.4948 1.18489 0)
(17.6246 1.18054 7.39793e-20)
(17.7335 1.17226 2.03973e-19)
(15.5812 1.08427 0)
(15.5825 1.0834 -4.9833e-19)
(15.5848 1.08149 1.23185e-23)
(15.5891 1.07626 -4.70825e-21)
(15.5985 1.06815 -3.1793e-23)
(15.6137 1.05847 -7.73174e-19)
(15.6371 1.04776 6.64255e-19)
(15.6698 1.03839 -1.10961e-18)
(15.7131 1.03086 -4.57336e-19)
(15.7698 1.0259 0)
(15.8431 1.02319 3.17068e-19)
(15.938 1.02331 1.08711e-21)
(16.0578 1.02678 2.25671e-22)
(16.2047 1.03412 3.7625e-19)
(16.3767 1.04391 0)
(16.5691 1.05455 2.53277e-19)
(16.7721 1.06115 -5.6222e-21)
(16.975 1.06282 0)
(17.1673 1.05496 -2.15609e-19)
(17.3398 1.04269 0)
(17.4905 1.02352 0)
(17.6138 1.00414 0)
(17.7168 0.983745 -1.73824e-21)
(15.5812 1.0844 0)
(15.5824 1.08353 2.53241e-19)
(15.5847 1.08163 -2.31581e-24)
(15.5889 1.07634 4.62025e-19)
(15.5983 1.06803 4.35166e-19)
(15.6134 1.058 7.78691e-19)
(15.6368 1.04671 0)
(15.6696 1.03651 -5.57532e-19)
(15.713 1.02774 9.14565e-19)
(15.7698 1.02089 -1.14144e-23)
(15.8434 1.01518 3.17774e-19)
(15.9388 1.01061 -2.69197e-19)
(16.0594 1.00699 0)
(16.2072 1.00416 0)
(16.3802 1.0003 3.10718e-19)
(16.5728 0.993931 -2.48396e-19)
(16.7748 0.980974 0)
(16.9745 0.961945 -2.88613e-19)
(17.1616 0.934038 -2.13663e-19)
(17.3272 0.903371 0)
(17.4702 0.868876 3.45412e-21)
(17.586 0.83672 2.35865e-22)
(17.6823 0.806149 -1.06081e-19)
(15.5811 1.08453 2.4832e-24)
(15.5824 1.08367 -5.08002e-19)
(15.5846 1.08178 -6.36061e-24)
(15.5887 1.07643 0)
(15.598 1.06792 2.53445e-21)
(15.613 1.05755 -7.8254e-19)
(15.6365 1.04569 -1.47996e-22)
(15.6693 1.03466 5.57395e-19)
(15.7127 1.02464 -4.57062e-19)
(15.7697 1.01589 3.77798e-19)
(15.8434 1.00718 -4.40836e-22)
(15.939 0.997886 5.38161e-19)
(16.0598 0.987106 -4.5549e-19)
(16.2078 0.974063 1.34209e-21)
(16.3804 0.956563 -6.22444e-19)
(16.5716 0.93344 2.54521e-19)
(16.7703 0.901609 -1.21021e-20)
(16.9646 0.863082 2.97839e-19)
(17.1445 0.816848 2.11765e-19)
(17.3018 0.769834 0)
(17.4359 0.722104 1.03074e-19)
(17.5435 0.679215 0)
(17.6328 0.640151 -4.56545e-20)
(15.581 1.08468 0)
(15.5823 1.08381 2.54756e-19)
(15.5845 1.08194 2.38656e-19)
(15.5886 1.07653 2.47839e-23)
(15.5978 1.06783 -8.77678e-19)
(15.6127 1.05712 3.92174e-19)
(15.6361 1.04469 0)
(15.6689 1.03283 0)
(15.7124 1.02156 -2.55932e-22)
(15.7694 1.01092 -3.77381e-19)
(15.843 0.999185 -6.3844e-22)
(15.9386 0.985162 -2.68498e-19)
(16.0591 0.967216 4.53327e-19)
(16.2063 0.943983 0)
(16.3774 0.913019 3.09118e-19)
(16.5654 0.873581 -2.46404e-19)
(16.7589 0.823768 1.75089e-19)
(16.946 0.767121 1.67154e-20)
(17.1171 0.704353 0)
(17.2648 0.642993 0)
(17.3894 0.583956 -5.06517e-20)
(17.4886 0.532136 -1.36024e-19)
(17.5707 0.486026 9.46997e-20)
(15.581 1.08483 0)
(15.5823 1.08395 -9.71071e-24)
(15.5844 1.08211 -2.38719e-19)
(15.5884 1.07664 2.37337e-19)
(15.5975 1.06776 4.39749e-19)
(15.6123 1.05672 8.55655e-23)
(15.6357 1.04372 3.36719e-19)
(15.6685 1.03102 2.78624e-19)
(15.712 1.01851 -4.55554e-19)
(15.7689 1.00598 0)
(15.8424 0.991229 -7.51487e-22)
(15.9375 0.972483 -2.6699e-19)
(16.0572 0.947405 0)
(16.2029 0.914097 -6.69864e-21)
(16.3711 0.869968 3.12842e-19)
(16.5544 0.814829 0)
(16.7411 0.748091 -2.85943e-20)
(16.9194 0.674813 -4.20895e-21)
(17.0804 0.597305 2.46553e-19)
(17.2178 0.523485 0)
(17.3324 0.45488 0)
(17.4231 0.395694 6.82893e-20)
(17.4982 0.343757 -2.26799e-19)
(15.5809 1.08499 -4.99203e-24)
(15.5823 1.08411 6.59124e-24)
(15.5843 1.08229 0)
(15.5882 1.07676 2.39291e-19)
(15.5972 1.06771 -2.24898e-22)
(15.612 1.05634 1.71532e-22)
(15.6352 1.04277 -3.36558e-19)
(15.668 1.02924 -2.78876e-19)
(15.7115 1.01549 4.55521e-19)
(15.7683 1.00107 -3.74696e-19)
(15.8414 0.983324 -3.16471e-19)
(15.9359 0.959889 2.69318e-19)
(16.0542 0.927762 2.20303e-19)
(16.1976 0.884574 1.78562e-19)
(16.3617 0.827703 -3.05916e-19)
(16.5388 0.757624 1.38066e-20)
(16.7172 0.675143 -2.09298e-19)
(16.8854 0.58678 -1.01519e-19)
(17.0354 0.496272 -1.02501e-19)
(17.162 0.411732 7.14964e-20)
(17.2665 0.335096 -9.2729e-20)
(17.3488 0.269873 0)
(17.417 0.213117 8.62993e-20)
(15.5809 1.08516 0)
(15.5822 1.08427 2.56696e-19)
(15.5842 1.08247 2.40882e-19)
(15.588 1.07689 -2.37471e-19)
(15.5969 1.06767 2.22163e-19)
(15.6116 1.05597 0)
(15.6348 1.04185 3.77959e-22)
(15.6675 1.02749 -4.97724e-22)
(15.7109 1.0125 2.27584e-19)
(15.7675 0.996204 5.62984e-19)
(15.8402 0.975487 -3.12072e-19)
(15.9336 0.94742 -1.87302e-21)
(16.0502 0.908373 -1.77835e-21)
(16.1903 0.85558 -1.85147e-19)
(16.3492 0.7865 0)
(16.5189 0.702366 2.31501e-19)
(16.6877 0.605416 -1.75778e-19)
(16.8447 0.503527 1.33793e-19)
(16.983 0.401673 4.59983e-20)
(17.0986 0.307987 4.44512e-21)
(17.193 0.224653 -8.92711e-20)
(17.2671 0.154502 6.04552e-20)
(17.3286 0.0937493 8.51983e-20)
(15.5808 1.08534 1.17903e-19)
(15.5822 1.08443 2.55312e-22)
(15.5841 1.08266 -2.40963e-19)
(15.5878 1.07704 -2.39186e-19)
(15.5966 1.06765 -4.45247e-19)
(15.6112 1.05563 -3.97158e-19)
(15.6343 1.04095 -3.786e-22)
(15.667 1.02576 4.98546e-22)
(15.7102 1.00955 -2.27572e-19)
(15.7665 0.99139 -1.87466e-19)
(15.8386 0.967736 6.25797e-19)
(15.9308 0.935117 -2.62666e-19)
(16.045 0.889323 -2.21591e-19)
(16.1811 0.827273 1.80356e-19)
(16.3339 0.746618 -1.01799e-20)
(16.495 0.649418 -2.02722e-19)
(16.653 0.539332 1.7889e-19)
(16.798 0.425458 -1.88953e-19)
(16.9242 0.313805 -4.92539e-20)
(17.0285 0.21238 0)
(17.113 0.123496 8.97579e-20)
(17.1792 0.0493428 -1.19321e-19)
(17.2342 -0.014737 1.61894e-19)
(15.5808 1.08553 -1.17919e-19)
(15.5822 1.0846 -3.85817e-19)
(15.5841 1.08285 -2.42846e-19)
(15.5876 1.07719 2.41519e-19)
(15.5963 1.06764 2.23044e-19)
(15.6108 1.05531 3.97139e-19)
(15.6338 1.04008 3.40168e-19)
(15.6664 1.02407 0)
(15.7095 1.00664 2.27844e-19)
(15.7655 0.986635 -1.86931e-19)
(15.8367 0.96009 -3.12308e-19)
(15.9274 0.923022 2.62632e-19)
(16.0387 0.870696 0)
(16.1702 0.799807 -1.67751e-19)
(16.3158 0.708297 1.24963e-19)
(16.4672 0.599101 -1.09664e-19)
(16.6136 0.477248 4.48964e-20)
(16.7459 0.352892 6.67662e-20)
(16.8597 0.232879 -1.76324e-19)
(16.9528 0.124968 1.18402e-19)
(17.0275 0.0315288 0)
(17.086 -0.0458496 -2.31916e-19)
(17.1347 -0.112692 3.33413e-19)
(15.5807 1.08572 0)
(15.5821 1.08477 1.28763e-19)
(15.584 1.08306 2.4283e-19)
(15.5874 1.07736 -2.41595e-19)
(15.5961 1.06765 -3.55226e-23)
(15.6104 1.05501 1.73939e-22)
(15.6333 1.03924 -1.69261e-19)
(15.6658 1.02241 0)
(15.7087 1.00376 -2.27836e-19)
(15.7642 0.981945 3.43293e-22)
(15.8345 0.952565 0)
(15.9234 0.911172 -1.2915e-19)
(16.0314 0.85257 0)
(16.1575 0.773321 1.235e-20)
(16.2952 0.671754 -2.7619e-19)
(16.436 0.551698 8.45802e-20)
(16.5699 0.419464 4.31061e-20)
(16.6892 0.286082 -1.70937e-19)
(16.7903 0.159042 8.55766e-20)
(16.8721 0.0457671 1.19166e-19)
(16.9372 -0.0513603 -1.93111e-19)
(16.9883 -0.1313 1.61068e-19)
(17.0308 -0.200426 -5.9785e-19)
(15.5807 1.08592 -1.14993e-19)
(15.5821 1.08495 1.29576e-19)
(15.5839 1.08327 -1.22731e-19)
(15.5873 1.07754 -1.24569e-22)
(15.5958 1.06768 2.29496e-22)
(15.61 1.05473 -4.04135e-22)
(15.6328 1.03842 -1.70701e-19)
(15.6651 1.02078 1.12588e-21)
(15.7078 1.00093 -8.19438e-22)
(15.7629 0.977327 4.48847e-22)
(15.8321 0.945179 -1.53761e-19)
(15.9188 0.899606 1.2453e-19)
(16.0232 0.83502 6.0432e-21)
(16.1432 0.747946 -1.20435e-20)
(16.2722 0.637182 1.53668e-19)
(16.4017 0.507451 0)
(16.5226 0.36623 7.57669e-20)
(16.6283 0.225229 1.15071e-19)
(16.7167 0.0924026 -8.19514e-20)
(16.7872 -0.025225 2.19101e-19)
(16.843 -0.125285 -1.07597e-19)
(16.8868 -0.207229 2.40841e-20)
(16.9234 -0.278251 3.01604e-19)
(15.5806 1.08613 2.29171e-19)
(15.5821 1.08513 -1.29611e-19)
(15.5838 1.08348 -8.00448e-22)
(15.5871 1.07773 0)
(15.5955 1.06772 0)
(15.6096 1.05448 -2.0263e-19)
(15.6323 1.03763 -1.72135e-19)
(15.6644 1.01918 0)
(15.7069 0.99815 -1.01407e-21)
(15.7613 0.972787 1.87446e-19)
(15.8293 0.937947 1.56515e-19)
(15.9137 0.888358 -3.61522e-21)
(16.0139 0.818114 -7.39299e-21)
(16.1275 0.7238 2.137e-20)
(16.247 0.604752 -1.53058e-20)
(16.3646 0.466568 0)
(16.4719 0.317751 -1.08965e-19)
(16.5639 0.170489 4.3843e-21)
(16.6395 0.0330365 -2.21746e-19)
(16.6989 -0.0880263 1.00453e-19)
(16.7454 -0.190364 1.41984e-19)
(16.7822 -0.273867 -2.30588e-19)
(16.8129 -0.34649 0)
(15.5806 1.08634 -2.27608e-19)
(15.582 1.08531 1.31229e-23)
(15.5837 1.0837 1.2362e-19)
(15.5869 1.07792 0)
(15.5952 1.06778 0)
(15.6092 1.05425 -9.2029e-22)
(15.6317 1.03687 3.44737e-19)
(15.6637 1.01762 0)
(15.7059 0.995417 1.14072e-19)
(15.7597 0.968332 0)
(15.8263 0.930884 0)
(15.9082 0.87746 -4.47779e-21)
(16.0039 0.801916 5.86016e-21)
(16.1103 0.700987 6.94342e-20)
(16.22 0.57461 1.48443e-20)
(16.3251 0.429218 -2.5708e-20)
(16.4185 0.274192 1.05978e-19)
(16.4966 0.121984 0)
(16.5593 -0.0190022 7.25005e-20)
(16.6076 -0.142657 0)
(16.645 -0.2467 3.10831e-20)
(16.6749 -0.33141 4.32057e-20)
(16.6999 -0.405395 0)
(15.5806 1.08655 1.69815e-19)
(15.582 1.0855 -6.58881e-20)
(15.5836 1.08393 0)
(15.5867 1.07813 1.24611e-19)
(15.5949 1.06785 -1.15291e-19)
(15.6087 1.05403 2.03795e-19)
(15.6311 1.03613 -1.72907e-19)
(15.6629 1.0161 -1.42475e-19)
(15.7048 0.992734 -1.1325e-19)
(15.7579 0.963969 -1.64373e-21)
(15.8231 0.924004 2.15721e-21)
(15.9021 0.866944 1.22814e-19)
(15.993 0.78648 7.04121e-21)
(16.092 0.679595 -1.01023e-19)
(16.1912 0.546875 1.43542e-20)
(16.2835 0.395538 0)
(16.3629 0.235678 0)
(16.4268 0.0798095 0)
(16.4767 -0.0636661 0)
(16.514 -0.189117 -2.12807e-20)
(16.5424 -0.294333 -1.38249e-19)
(16.5654 -0.379933 1.36407e-19)
(16.5846 -0.455028 0)
(15.5805 1.08678 -5.63866e-20)
(15.582 1.0857 1.3223e-19)
(15.5836 1.08416 0)
(15.5866 1.07835 -1.24691e-19)
(15.5946 1.06794 2.31538e-19)
(15.6083 1.05385 0)
(15.6305 1.03543 0)
(15.6622 1.01461 1.41851e-19)
(15.7036 0.990105 0)
(15.756 0.959701 -8.9858e-20)
(15.8195 0.91732 -7.63965e-20)
(15.8955 0.856835 -6.24053e-20)
(15.9813 0.771855 9.69972e-20)
(16.0725 0.6597 0)
(16.161 0.521643 0)
(16.2403 0.365626 2.304e-20)
(16.3054 0.202299 -3.01622e-20)
(16.3553 0.0440369 0)
(16.3923 -0.100901 -2.88633e-20)
(16.4185 -0.227359 2.13687e-20)
(16.438 -0.333201 1.09195e-19)
(16.454 -0.419351 -1.43252e-19)
(16.4673 -0.495255 0)
(15.5805 1.08701 1.00251e-23)
(15.582 1.0859 -1.33166e-19)
(15.5835 1.0844 -4.00397e-23)
(15.5864 1.07858 -6.30724e-20)
(15.5943 1.06804 -1.16247e-19)
(15.6079 1.05368 1.03373e-19)
(15.6299 1.03475 3.09362e-22)
(15.6613 1.01316 -7.1778e-20)
(15.7024 0.987532 1.1545e-19)
(15.7539 0.955534 9.01728e-20)
(15.8158 0.910843 7.42605e-20)
(15.8886 0.847157 -6.04392e-20)
(15.969 0.758083 -9.70394e-20)
(16.0521 0.641361 -1.01592e-20)
(16.1296 0.498984 1.33026e-20)
(16.1957 0.339551 2.16513e-20)
(16.2465 0.17411 -2.83636e-20)
(16.2824 0.0147199 0)
(16.3066 -0.130635 2.89705e-20)
(16.3218 -0.257285 0)
(16.3322 -0.363156 -1.30244e-20)
(16.341 -0.449453 0)
(16.3484 -0.525836 -4.95701e-21)
(15.5805 1.08724 2.78128e-20)
(15.582 1.0861 6.67929e-20)
(15.5834 1.08465 6.40355e-20)
(15.5862 1.07882 -2.69246e-22)
(15.5941 1.06817 -2.01423e-22)
(15.6074 1.05353 7.7624e-22)
(15.6293 1.03411 -8.77453e-20)
(15.6605 1.01174 -5.91279e-22)
(15.7011 0.985016 -1.13626e-19)
(15.7517 0.951473 -1.60069e-21)
(15.8118 0.904584 7.46597e-20)
(15.8813 0.83793 0)
(15.9561 0.745196 -6.43468e-21)
(16.0309 0.624621 8.42379e-21)
(16.0973 0.478941 2.62348e-20)
(16.1502 0.317344 0)
(16.1869 0.151134 0)
(16.2088 -0.00810879 -1.78203e-20)
(16.2202 -0.152791 0)
(16.2243 -0.278748 6.72864e-20)
(16.2255 -0.383975 -7.72129e-20)
(16.2271 -0.469934 6.70675e-21)
(16.2281 -0.546399 1.54312e-19)
(15.5805 1.08748 -5.55445e-20)
(15.5819 1.0863 -3.38819e-20)
(15.5834 1.08489 -9.6222e-20)
(15.5861 1.07906 6.37776e-20)
(15.5938 1.0683 5.89749e-20)
(15.607 1.05341 -1.56485e-19)
(15.6287 1.03349 8.78225e-20)
(15.6596 1.01037 7.06076e-20)
(15.6998 0.982558 1.81108e-21)
(15.7494 0.947521 -1.3025e-21)
(15.8076 0.898552 -7.25635e-20)