/*--------------------------------*- C++ -*----------------------------------*\
  =========                 |
  \\      /  F ield         | OpenFOAM: The Open Source CFD Toolbox
   \\    /   O peration     | Website:  https://openfoam.org
    \\  /    A nd           | Version:  7
     \\/     M anipulation  |
\*---------------------------------------------------------------------------*/
FoamFile
{
    version     2.0;
    format      ascii;
    class       volScalarField;
    location    "50";
    object      yPlus;
}
// * * * * * * * * * * * * * * * * * * * * * * * * * * * * * * * * * * * * * //

dimensions      [0 0 0 0 0 0 0];

internalField   uniform 0;

boundaryField
{
    inlet
    {
        type            calculated;
        value           uniform 0;
    }
    outlet
    {
        type            calculated;
        value           uniform 0;
    }
    suction_side
    {
        type            calculated;
        value           nonuniform List<scalar> 
56
(
5.64011
5.75982
6.07561
6.20033
6.65849
6.81312
7.56397
7.7684
8.92256
9.33594
10.7803
13.0581
16.1578
22.1948
35.07
44.4311
50.1855
50.3172
47.984
44.233
40.3659
37.3428
36.8124
38.1707
40.4818
42.0095
42.6921
42.8301
42.5742
42.0928
41.5044
40.844
40.1504
39.453
38.7675
38.1072
37.4644
36.8483
36.2535
35.6682
35.0914
34.5078
33.9197
33.302
32.6789
31.9814
31.2038
30.274
29.0819
27.9289
26.7498
25.4262
24.3488
22.7436
21.8274
20.1638
)
;
    }
    pressure_side
    {
        type            calculated;
        value           nonuniform List<scalar> 
56
(
27.4534
28.3606
28.6539
29.4739
30.0816
30.855
31.597
32.3934
33.0952
33.7
34.2258
34.6938
35.1166
35.5051
35.8708
36.2146
36.5352
36.8366
37.1187
37.3855
37.6469
37.9066
38.1541
38.3642
38.5007
38.5251
38.4182
38.2749
38.29
38.5969
39.3948
40.7318
42.4571
44.1261
45.4108
46.2475
46.4329
45.4193
43.0983
39.4496
34.3828
28.0867
20.9364
13.4222
10.42
7.65251
6.70826
5.36861
4.90524
4.59577
4.49096
4.58834
4.74085
4.92388
5.19013
5.3448
)
;
    }
    trailing_edge
    {
        type            calculated;
        value           nonuniform List<scalar> 2(100.889 86.8205);
    }
    defaultFaces
    {
        type            empty;
    }
}


// ************************************************************************* //
