/*--------------------------------*- C++ -*----------------------------------*\
  =========                 |
  \\      /  F ield         | OpenFOAM: The Open Source CFD Toolbox
   \\    /   O peration     | Website:  https://openfoam.org
    \\  /    A nd           | Version:  7
     \\/     M anipulation  |
\*---------------------------------------------------------------------------*/
FoamFile
{
    version     2.0;
    format      ascii;
    class       volScalarField;
    location    "81";
    object      k;
}
// * * * * * * * * * * * * * * * * * * * * * * * * * * * * * * * * * * * * * //

dimensions      [0 2 -2 0 0 0 0];

internalField   nonuniform List<scalar> 
12842
(
0.00569089
0.00509424
0.00472232
0.00447525
0.00430668
0.0041811
0.00410111
0.00403221
0.00400051
0.00396487
0.00396555
0.00398027
0.00401987
0.00408032
0.00414198
0.00419322
0.00424626
0.0042828
0.00430929
0.00433085
0.00434702
0.00435714
0.00436402
0.00564878
0.00506935
0.0046872
0.00444835
0.00429438
0.0041746
0.00409633
0.00402783
0.00399616
0.00396152
0.0039634
0.00398015
0.00402295
0.00408851
0.00414303
0.00419288
0.0042451
0.00428071
0.00431296
0.00433199
0.0043424
0.00435152
0.00435882
0.00559908
0.00499263
0.00463635
0.00439827
0.00424439
0.00413952
0.00407044
0.00400882
0.00398002
0.00395154
0.00395777
0.00398116
0.00403394
0.0041058
0.00415428
0.00419927
0.00425035
0.00427893
0.00431548
0.00433749
0.00434622
0.00434711
0.00435668
0.00556129
0.00492767
0.0045774
0.00435997
0.00422183
0.00412336
0.0040584
0.00400049
0.00397301
0.00394731
0.00395488
0.00398195
0.00404159
0.00411865
0.00416907
0.00420638
0.00425639
0.00428136
0.00431401
0.00433751
0.00434441
0.00435715
0.00435353
0.00549073
0.00485955
0.00450867
0.00430734
0.00417091
0.00408761
0.00403017
0.00398076
0.00395718
0.00393843
0.00394983
0.00398332
0.00405361
0.00412989
0.00418284
0.00421586
0.0042635
0.0042861
0.00431661
0.00433836
0.00434813
0.00435243
0.00435934
0.00544615
0.00479229
0.00446192
0.00426554
0.00414676
0.00406636
0.00401709
0.00397191
0.00394994
0.0039343
0.0039474
0.00398544
0.00406852
0.00414454
0.00419739
0.0042288
0.00427468
0.00429441
0.0043219
0.00434653
0.00436186
0.00435889
0.00436414
0.00537442
0.00473151
0.0043953
0.00422459
0.00410647
0.00404111
0.00399199
0.00395389
0.0039358
0.00392649
0.00394409
0.00398878
0.00408108
0.00415745
0.0042125
0.00423942
0.0042816
0.00430169
0.00433491
0.0043487
0.00436203
0.00435948
0.00436589
0.00532649
0.00467258
0.00435896
0.00418553
0.00408034
0.00401926
0.00397993
0.00394626
0.00392834
0.0039223
0.00393934
0.00398856
0.0040948
0.00417096
0.00422325
0.00425359
0.00429131
0.00430927
0.0043384
0.00434277
0.00436268
0.00437663
0.00436477
0.00525918
0.0046233
0.00430517
0.00415674
0.00405503
0.00400243
0.00396157
0.00393258
0.00391804
0.00391604
0.00393967
0.00399253
0.0041072
0.00418256
0.00423431
0.00426075
0.00429944
0.00431816
0.00433571
0.00434168
0.00436191
0.0043727
0.00436252
0.0052009
0.00456352
0.00427002
0.00412303
0.00403218
0.00398674
0.00395201
0.00392681
0.00391188
0.00391232
0.00393948
0.00399542
0.00411722
0.00419158
0.00424121
0.00426858
0.00430495
0.0043266
0.00433801
0.00434363
0.0043589
0.00436477
0.00436414
0.00513182
0.00451875
0.00422861
0.00409991
0.00401316
0.00397404
0.00393883
0.00391652
0.00390433
0.00390728
0.0039387
0.00399837
0.00413104
0.00420116
0.00424861
0.00427688
0.00431172
0.00433221
0.00434448
0.00434974
0.00436144
0.00436483
0.00436695
0.00507051
0.00446543
0.00419314
0.00407048
0.00399326
0.00396045
0.00392937
0.00391103
0.00389894
0.00390364
0.00393867
0.00400224
0.00413962
0.00420994
0.00425388
0.00428787
0.00432251
0.00433982
0.00435367
0.00435612
0.00436918
0.00437031
0.0043737
0.00500481
0.00442605
0.00416324
0.0040509
0.00397699
0.0039496
0.00391905
0.00390209
0.00389224
0.00389931
0.00393906
0.00400736
0.00415508
0.0042182
0.0042595
0.00429729
0.00433021
0.00435054
0.00436376
0.00436587
0.00437552
0.00437613
0.00438075
0.00494652
0.00438035
0.00413003
0.00402636
0.00396029
0.00393787
0.00390936
0.00389687
0.00388717
0.00389601
0.00394014
0.00401133
0.00416582
0.00422552
0.00426386
0.00430562
0.00433719
0.00435775
0.0043723
0.00437351
0.00438444
0.00439092
0.00440097
0.0048867
0.00434596
0.00410754
0.00400962
0.00394704
0.00392797
0.00390148
0.00388919
0.0038813
0.00389217
0.003941
0.00401719
0.00418014
0.00423097
0.00426807
0.00432028
0.00434264
0.00437113
0.00439379
0.00438479
0.00439655
0.00440295
0.00441653
0.00483287
0.00430761
0.00407972
0.00398997
0.00393277
0.0039182
0.00389205
0.00388376
0.00387636
0.00388962
0.00394307
0.00402326
0.00419411
0.00423825
0.004275
0.00433055
0.00434973
0.00438286
0.00440694
0.00440196
0.00441562
0.0044352
0.00446158
0.00478295
0.00427789
0.00406144
0.00397488
0.00392221
0.00390852
0.00388553
0.00387751
0.00387137
0.00388618
0.00394697
0.00402968
0.00420692
0.00424265
0.00428058
0.0043405
0.00435688
0.00439803
0.00442429
0.00441536
0.0044355
0.00446153
0.00449985
0.0047394
0.00424574
0.00403881
0.00395913
0.00391009
0.00390031
0.00387716
0.00387153
0.00386665
0.00388449
0.00395006
0.0040373
0.00422278
0.00425064
0.00429189
0.00435502
0.00437067
0.00441838
0.00444009
0.00444615
0.00448505
0.00453016
0.00458855
0.0047032
0.00422071
0.00402416
0.00394511
0.00390142
0.00389069
0.00387112
0.00386646
0.00386246
0.00388163
0.00395165
0.00404793
0.00423824
0.00425717
0.00430117
0.00436573
0.00438258
0.0044333
0.0044579
0.00447768
0.00454827
0.00460618
0.00469398
0.00466764
0.00419356
0.00400475
0.00393212
0.00389083
0.00388341
0.00386415
0.00386053
0.00385836
0.00388103
0.00395334
0.00405939
0.00425639
0.00427067
0.00432222
0.00437849
0.00441468
0.00447132
0.00451651
0.00455299
0.00463975
0.0047312
0.0048573
0.00463995
0.00417306
0.00399297
0.00391901
0.00388339
0.00387374
0.00385866
0.00385574
0.0038549
0.00388034
0.00395885
0.00407424
0.00426872
0.00428171
0.00433833
0.00438847
0.00444162
0.00449866
0.00457055
0.00464747
0.00478727
0.00492043
0.00506756
0.00461148
0.00415017
0.00397619
0.00390798
0.00387349
0.0038668
0.00385261
0.00385055
0.00385151
0.00388125
0.00396314
0.00409207
0.00429669
0.00430761
0.00437831
0.00443878
0.00450784
0.00459117
0.00469292
0.00479134
0.00494527
0.00514216
0.00540149
0.00458904
0.00413315
0.00396484
0.00389606
0.00386616
0.00385738
0.00384809
0.00384602
0.00384873
0.00388145
0.00396595
0.00410763
0.00431484
0.00432992
0.0044103
0.00448036
0.00457402
0.00464842
0.00477911
0.00495688
0.0052294
0.00552986
0.00570925
0.0045682
0.00411831
0.00395504
0.00388891
0.00385928
0.00385174
0.00384392
0.00384205
0.00384673
0.00388166
0.00396745
0.00414831
0.00433875
0.00437116
0.00448009
0.00459164
0.00468279
0.00480581
0.00499727
0.00523104
0.00551755
0.00577971
0.00610202
0.00455663
0.00410748
0.00394786
0.00388328
0.00385509
0.00384656
0.00384243
0.0038396
0.00384528
0.00388155
0.0039781
0.00416462
0.00436292
0.00442611
0.00455498
0.00466532
0.00480053
0.00491348
0.00513459
0.00542621
0.00581908
0.00634065
0.00667633
0.00453928
0.00409865
0.00394228
0.00387982
0.00385027
0.00384339
0.00384022
0.00383747
0.00384372
0.00388197
0.00398066
0.00418723
0.00438424
0.00448664
0.00464819
0.00482069
0.00496108
0.00514064
0.0054317
0.00585653
0.00641926
0.00684402
0.00698981
0.00452853
0.00408803
0.00393479
0.00387415
0.00384577
0.00383868
0.00383828
0.00383485
0.00384265
0.00388211
0.00398195
0.00420732
0.00443705
0.00458989
0.00478415
0.00494367
0.00512556
0.00535329
0.00570573
0.00626948
0.00679788
0.00721111
0.00754121
0.00451234
0.0040807
0.00393024
0.00387123
0.00384067
0.0038362
0.00383672
0.00383214
0.00384079
0.00388426
0.00399761
0.00423916
0.00450724
0.0046876
0.00489702
0.00512238
0.00534885
0.00564161
0.00613577
0.00666037
0.00728485
0.00871486
0.0135486
0.00450163
0.00406962
0.00392253
0.00386566
0.00383609
0.00383209
0.00383357
0.00383007
0.00383922
0.00388857
0.00403098
0.00428961
0.00460876
0.00482873
0.00508322
0.00530868
0.00556209
0.00594799
0.00648834
0.00730771
0.0103047
0.0287061
0.125067
0.00448779
0.00406358
0.00391871
0.00386232
0.00383087
0.00382996
0.00383109
0.00382774
0.00383881
0.00390351
0.00407836
0.00437684
0.0047242
0.00496729
0.0052231
0.00549404
0.00581512
0.00624314
0.00689379
0.00973479
0.0298689
0.13963
0.350303
0.00447655
0.00405204
0.00391105
0.00385687
0.00382619
0.00382639
0.00382919
0.00382386
0.00384186
0.00393584
0.00413812
0.00446256
0.00485686
0.00514335
0.00543898
0.00572508
0.00607456
0.00668162
0.00847675
0.0201369
0.0625607
0.147311
0.35784
0.00446456
0.00404642
0.00390728
0.00385208
0.00382164
0.00382339
0.00382486
0.00382252
0.00385675
0.00397663
0.00421464
0.00457968
0.00500608
0.00530592
0.00560634
0.00591643
0.00631118
0.00701723
0.00908385
0.0196884
0.0545985
0.13977
0.330402
0.00445411
0.00403502
0.00389973
0.00384657
0.00381634
0.00382089
0.00382105
0.00382551
0.00388338
0.00403313
0.00429947
0.0046989
0.00517093
0.00551891
0.00582998
0.00615177
0.0065857
0.00741127
0.0108092
0.0209004
0.043046
0.104939
0.237563
0.00444189
0.00402932
0.00389588
0.00384147
0.00381143
0.00381758
0.0038261
0.00384269
0.00392266
0.0040979
0.0044031
0.0048393
0.00534124
0.00568912
0.00602062
0.00636522
0.00680401
0.00764433
0.0107338
0.0166441
0.0319342
0.0697115
0.14284
0.00443361
0.00401773
0.00388809
0.00383418
0.00380739
0.00381246
0.00384299
0.00387183
0.00396965
0.00417722
0.00450845
0.00498412
0.00552831
0.0059217
0.00622908
0.00656266
0.00702265
0.00784817
0.0106312
0.0160485
0.0229707
0.044101
0.0824168
0.00442093
0.00401181
0.00388402
0.00382882
0.00380213
0.00381455
0.00387281
0.00391367
0.00403251
0.00426386
0.00463449
0.00514345
0.00571384
0.00610049
0.00644226
0.00680151
0.00726039
0.00801009
0.01016
0.0133006
0.0178576
0.0290911
0.0484477
0.00441308
0.0040004
0.00387564
0.00382344
0.00379607
0.00382552
0.00390996
0.00396442
0.00410153
0.00436127
0.00475331
0.00530009
0.00590279
0.00632166
0.00661827
0.00695394
0.00739703
0.00810131
0.0100195
0.0124453
0.0154207
0.0216936
0.0330807
0.00440278
0.00399262
0.00387142
0.00381631
0.00379771
0.00385125
0.00395997
0.00402904
0.00418629
0.00446582
0.00489446
0.00547364
0.00609854
0.00651036
0.00684381
0.00719532
0.00763348
0.00824455
0.00950608
0.0120716
0.0142536
0.018412
0.0268821
0.00439227
0.00398267
0.0038626
0.00381022
0.00381016
0.00388464
0.00401714
0.00410218
0.00427474
0.00457497
0.00501946
0.00562824
0.00627144
0.00670175
0.0069956
0.00732843
0.00774934
0.00831623
0.00928983
0.011105
0.0138875
0.0175104
0.0286341
0.00438551
0.00397349
0.00385869
0.00381684
0.00383793
0.00393018
0.00408705
0.00418707
0.00437559
0.00469182
0.00516613
0.00580828
0.0064706
0.00689833
0.00721219
0.00754831
0.00796862
0.00848222
0.00926759
0.0106039
0.0138458
0.0181273
0.0265738
0.00437287
0.00396217
0.0038508
0.00383006
0.00387437
0.00398543
0.00416191
0.00427792
0.00447782
0.00480592
0.00529111
0.00595253
0.00661649
0.00704595
0.00734493
0.00768298
0.00807982
0.00857978
0.00936505
0.0110015
0.0136971
0.0188565
0.0268518
0.00436667
0.00395524
0.00385115
0.00386471
0.00392157
0.00405179
0.00424689
0.00437662
0.00458762
0.00492784
0.00543429
0.00612775
0.0068105
0.0072541
0.00756472
0.00789959
0.00831231
0.00879671
0.00942437
0.010787
0.0132854
0.0194845
0.031461
0.00435411
0.00394642
0.00385823
0.0039004
0.0039789
0.00412688
0.00433432
0.00447762
0.00469585
0.0050404
0.00555313
0.00625884
0.00693142
0.00736453
0.00767338
0.00802069
0.00844733
0.00895189
0.00973805
0.0109943
0.0132217
0.0190268
0.0326044
0.00434773
0.00393623
0.00388012
0.00395486
0.00404552
0.00421058
0.00442803
0.00458248
0.0048076
0.00515971
0.00568746
0.00642032
0.00710834
0.00756584
0.00789634
0.00828911
0.00875522
0.0093341
0.0101005
0.0114005
0.0139873
0.0194504
0.0356634
0.00433487
0.00393417
0.00390997
0.00401116
0.00412012
0.00429925
0.00452194
0.00468561
0.00491362
0.00526526
0.00579461
0.00653425
0.00721182
0.00766776
0.00801347
0.00842441
0.00894604
0.00966967
0.0106055
0.0125573
0.0147518
0.0208089
0.0363475
0.00432832
0.00394662
0.00394974
0.0040826
0.00420191
0.00439379
0.00461837
0.0047893
0.00502075
0.00537554
0.00591672
0.00667652
0.00737155
0.00786274
0.00825658
0.00877044
0.0094763
0.0102111
0.0121058
0.0139835
0.0177801
0.0232779
0.0404194
0.00431691
0.00396776
0.00399571
0.00415558
0.00428717
0.0044886
0.00471282
0.00488782
0.00511837
0.0054703
0.00601064
0.00677148
0.00745852
0.00796212
0.0083896
0.00899451
0.00985026
0.0116653
0.0138096
0.0160885
0.0193772
0.0259875
0.0393691
0.00431083
0.00400536
0.00405179
0.00424013
0.0043779
0.00458701
0.00480729
0.00498463
0.00521558
0.00556784
0.00611774
0.00689569
0.00760839
0.0081639
0.00870097
0.00955137
0.010932
0.012329
0.0151341
0.0189295
0.022655
0.0282856
0.0386764
0.00430186
0.00404313
0.00411344
0.00432575
0.00447091
0.00468522
0.00490105
0.00507766
0.00530495
0.00565256
0.00620107
0.0069743
0.00768471
0.00828133
0.0089025
0.0100472
0.0117732
0.014866
0.0189659
0.0229051
0.0308312
0.0403921
0.0513939
0.00429323
0.00410173
0.00418858
0.00442381
0.00457054
0.0047877
0.00499573
0.00516961
0.00539383
0.00573941
0.00629382
0.00707731
0.00781526
0.00850344
0.00937027
0.0110656
0.0137545
0.016866
0.0213129
0.0248606
0.0333494
0.048041
0.0733935
0.00429755
0.00416271
0.00426564
0.00451713
0.00466646
0.0048834
0.0050839
0.00525258
0.00547102
0.00580982
0.00636009
0.00713168
0.00787609
0.0086344
0.00967855
0.0120041
0.0153967
0.0196301
0.0242483
0.0319626
0.0462661
0.0779949
0.126375
0.00431919
0.00423613
0.00434892
0.00461281
0.00475947
0.00497405
0.00516528
0.00532773
0.00554093
0.00587604
0.00642924
0.00720111
0.00797167
0.00886875
0.0103615
0.0136857
0.0180752
0.0224243
0.0292815
0.0385885
0.060169
0.101546
0.16568
0.00435756
0.00431164
0.00443095
0.00470168
0.00484742
0.00505674
0.00523944
0.00539434
0.00560095
0.00592907
0.00647815
0.00723805
0.00802085
0.00903785
0.0109441
0.0151605
0.0202763
0.0254774
0.0323405
0.0481333
0.0733687
0.147152
0.225821
0.00440044
0.00439441
0.00451635
0.00478965
0.00493037
0.00513282
0.00530624
0.00545372
0.00565459
0.00597856
0.00652954
0.0072855
0.00809715
0.00932862
0.0118775
0.0171668
0.0232512
0.0293368
0.042132
0.0698438
0.126459
0.21588
0.276607
0.00444845
0.00447706
0.00459894
0.00487043
0.00500786
0.0052006
0.00536572
0.00550572
0.00570026
0.00601824
0.00656802
0.00731501
0.00814461
0.00955619
0.0127505
0.0191435
0.0255311
0.0323998
0.0460727
0.0846482
0.156593
0.261109
0.315578
0.00450022
0.00456256
0.00468195
0.00494817
0.00507969
0.00526164
0.00541869
0.00555209
0.00574124
0.00605534
0.00660799
0.00735091
0.00821715
0.00991234
0.0140005
0.021358
0.0284432
0.0367441
0.0568279
0.123109
0.196247
0.286603
0.345069
0.00455307
0.0046406
0.00475698
0.00501419
0.00514123
0.00531037
0.00546075
0.00558883
0.0057729
0.00608262
0.00663744
0.00737722
0.00827405
0.0102258
0.0151441
0.0233634
0.0306093
0.0406364
0.07146
0.15144
0.238715
0.333099
0.397168
0.00460468
0.00471477
0.00482664
0.00507412
0.00519574
0.00535254
0.00549754
0.00562153
0.00580129
0.00610744
0.00666609
0.00740554
0.00834424
0.0106098
0.0163199
0.0252125
0.0328235
0.0460364
0.0809354
0.155383
0.255736
0.374294
0.472923
0.00465855
0.0047857
0.00489564
0.00513028
0.00524786
0.00539024
0.00553034
0.0056512
0.00582688
0.00612983
0.00669436
0.00743654
0.0084271
0.0110364
0.0176638
0.0270862
0.034818
0.0494646
0.0847807
0.164015
0.274099
0.401491
0.527581
0.00471307
0.00485568
0.00496024
0.005182
0.00529455
0.00542295
0.00555947
0.00567814
0.00585039
0.00615072
0.00672241
0.00746979
0.0085226
0.0115274
0.0189765
0.028781
0.0363853
0.0513603
0.0867834
0.15889
0.272581
0.401499
0.538452
0.00476777
0.00492023
0.00502384
0.00523041
0.0053389
0.00545258
0.00558532
0.00570242
0.00587149
0.00616982
0.0067506
0.00750494
0.00862865
0.0120492
0.02029
0.030303
0.0378504
0.0517637
0.0878604
0.160121
0.273923
0.40262
0.547724
0.00482158
0.00498278
0.00508098
0.0052737
0.00537801
0.00547801
0.00560852
0.0057245
0.00589105
0.00618788
0.00677837
0.00754077
0.00873981
0.0125933
0.0216638
0.0317462
0.0387481
0.0521487
0.0893115
0.1594
0.274959
0.4074
0.541877
0.00487454
0.00503871
0.00513633
0.00531434
0.00541477
0.00550175
0.00562887
0.00574428
0.00590845
0.00620451
0.00680629
0.00757797
0.00885743
0.0131649
0.0228483
0.0328677
0.0395511
0.0527847
0.0876609
0.161264
0.266281
0.392554
0.536678
0.00492448
0.00509206
0.00518436
0.00534965
0.0054468
0.00552232
0.00564776
0.00576199
0.00592465
0.00622063
0.0068336
0.00761465
0.0089738
0.0136942
0.0240875
0.0339899
0.0399675
0.0529782
0.088116
0.154802
0.256877
0.388656
0.50719
0.0049741
0.0051387
0.00523012
0.00538312
0.00547695
0.00554228
0.00566395
0.00577793
0.00593874
0.00623534
0.00686067
0.00765194
0.00909043
0.014275
0.0250664
0.0348387
0.0402713
0.0533616
0.0854432
0.140671
0.22905
0.348627
0.462494
0.00501924
0.00518314
0.00526926
0.00541185
0.00550297
0.00555997
0.00567971
0.00579201
0.00595214
0.00625015
0.00688703
0.00768771
0.00920287
0.0147086
0.0259736
0.0355105
0.0403976
0.0531157
0.0802103
0.124337
0.195511
0.297863
0.39532
0.00506454
0.00522153
0.00530634
0.00543957
0.00552814
0.005578
0.00569318
0.00580458
0.00596338
0.00626353
0.00691282
0.0077233
0.00930367
0.0151891
0.026715
0.0358304
0.040509
0.0526112
0.0741142
0.108087
0.162301
0.242749
0.322474
0.00510548
0.00525854
0.00533818
0.00546372
0.00554932
0.0055942
0.00570642
0.00581599
0.00597422
0.00627734
0.00693782
0.00775696
0.00939331
0.0155035
0.0269465
0.0359551
0.0405194
0.0514502
0.0678405
0.0929629
0.132599
0.19235
0.253732
0.00514696
0.00529057
0.00536929
0.00548726
0.00557152
0.00561134
0.00571843
0.00582602
0.00598314
0.00629
0.00696195
0.00778932
0.00947028
0.0157574
0.0269921
0.035974
0.0404663
0.0498988
0.0618691
0.0798796
0.107964
0.153843
0.191769
0.00518422
0.00532238
0.00539611
0.00550937
0.00558871
0.0056272
0.00572972
0.00583508
0.00599222
0.00630302
0.00698519
0.00781841
0.00952599
0.0158509
0.0270576
0.0359086
0.0400688
0.0480692
0.0563166
0.068858
0.087808
0.126445
0.131253
0.00522306
0.00534991
0.00542392
0.00552978
0.00560979
0.00564374
0.00574082
0.00584411
0.00599855
0.00631531
0.00700755
0.007846
0.00956491
0.0158599
0.0270287
0.0353838
0.0389641
0.0458277
0.0512714
0.0597927
0.0728708
0.0988024
0.0893454
0.00525786
0.00537847
0.00544825
0.00555175
0.00562383
0.00565988
0.00575125
0.00585092
0.00600528
0.0063277
0.00702825
0.00786789
0.00957753
0.0158181
0.0266395
0.034147
0.0373547
0.0433105
0.046659
0.0522783
0.0626062
0.0747323
0.0639642
0.00529355
0.00540334
0.00547448
0.00557047
0.00564423
0.00567593
0.00576108
0.00585932
0.00601197
0.00633967
0.00704756
0.00788472
0.00955305
0.0155826
0.0257428
0.032428
0.0352513
0.040413
0.042401
0.0459265
0.054892
0.0561186
0.0501899
0.00532901
0.00542986
0.0054978
0.00559222
0.00565733
0.00569223
0.00577177
0.00586573
0.00601335
0.00635132
0.00706479
0.00790786
0.0094752
0.0151499
0.0245608
0.0303875
0.0328509
0.0374522
0.0385593
0.0404619
0.0472775
0.0443859
0.0393882
0.00535874
0.0054538
0.00552393
0.00561102
0.00567543
0.00570831
0.00578114
0.00587184
0.00601434
0.00636252
0.00707843
0.0079157
0.00937593
0.0146172
0.0231643
0.0280329
0.030208
0.0343774
0.0346479
0.0359287
0.0409986
0.0381149
0.0375259
0.00539647
0.00547794
0.00554559
0.00563139
0.00568975
0.00572328
0.00578978
0.0058798
0.00601542
0.00637299
0.0070889
0.00790916
0.00924774
0.0139923
0.0216602
0.0256262
0.0274795
0.0311793
0.0310694
0.0321594
0.0360192
0.0331621
0.0343206
0.00542449
0.00550402
0.00557375
0.00565194
0.00570553
0.0057405
0.00580307
0.00588347
0.00601489
0.00638231
0.00709886
0.00789176
0.00909394
0.0133226
0.0201175
0.0231932
0.024865
0.028159
0.0280246
0.0292164
0.0328921
0.0330046
0.0314734
0.00545181
0.00552419
0.00559211
0.00566824
0.0057209
0.00575475
0.00580681
0.0058911
0.00601532
0.00639022
0.00710605
0.00786851
0.00894788
0.0126432
0.0186061
0.0209472
0.0223939
0.0250167
0.0252699
0.0268733
0.0292281
0.0325011
0.0320216
0.00548936
0.00554827
0.00561813
0.00569033
0.00573269
0.00576737
0.00581895
0.00589717
0.00601682
0.00639652
0.00710132
0.00783446
0.00877033
0.0119562
0.0172149
0.0189323
0.0202753
0.0224165
0.0232789
0.0254954
0.0286106
0.0301423
0.0313735
0.00550431
0.00557527
0.00564008
0.00570676
0.00575046
0.00578667
0.00582813
0.00589607
0.00601581
0.0064012
0.00709003
0.00779913
0.00861061
0.0113443
0.015934
0.0172294
0.0185311
0.0203245
0.0213094
0.0239596
0.0281721
0.029842
0.030119
0.00551087
0.00558276
0.00565255
0.00571354
0.00575988
0.00579341
0.0058354
0.00589901
0.00601545
0.00640461
0.00707424
0.0077493
0.0084619
0.0107558
0.0148376
0.0158583
0.0172165
0.0188289
0.0200214
0.0238725
0.0272323
0.0295516
0.02925
0.00552387
0.00559601
0.00566631
0.00572459
0.00576621
0.00579651
0.00583396
0.00589652
0.0060153
0.00640681
0.00705422
0.00770552
0.008327
0.0102579
0.0138968
0.0147914
0.0160571
0.0177429
0.0200779
0.0238237
0.0268753
0.0291657
0.0300936
0.00552159
0.00561068
0.0056632
0.0057239
0.00576356
0.00579589
0.00583362
0.00589805
0.00601538
0.00640715
0.00703039
0.00764303
0.00817679
0.0098804
0.0131176
0.0139716
0.0156338
0.0169365
0.019928
0.0237829
0.0272579
0.0286809
0.030162
0.00552155
0.00560715
0.00566949
0.00572472
0.00576324
0.00579615
0.00583412
0.00589826
0.00601493
0.00640578
0.00700546
0.00759993
0.00813964
0.00950353
0.0124852
0.0134079
0.015438
0.0171674
0.0198554
0.0237028
0.0271671
0.0287658
0.0311625
0.00552338
0.0056064
0.00566456
0.00573367
0.00576429
0.00579766
0.0058332
0.00589819
0.00601374
0.00640211
0.00697575
0.00753868
0.00811315
0.00928389
0.0119947
0.0130069
0.0151749
0.0168692
0.0197558
0.0243231
0.0280755
0.0310115
0.034064
0.00553145
0.00561328
0.00566441
0.00573032
0.00576421
0.00580338
0.00583334
0.00589862
0.0060132
0.00639769
0.00695366
0.00748841
0.00809668
0.00917385
0.0116282
0.0127438
0.0152137
0.0171088
0.0201721
0.0259168
0.0296121
0.0334839
0.0379577
0.00553462
0.00560858
0.00566886
0.00573346
0.00576552
0.00579906
0.00583819
0.00589772
0.00601398
0.00639168
0.0069263
0.00746042
0.00805759
0.00917726
0.0113704
0.0125444
0.0151797
0.0168688
0.02113
0.0275171
0.0319031
0.0368819
0.0450047
0.00553345
0.00560756
0.00567115
0.00572727
0.00576952
0.00579951
0.00583503
0.00589812
0.00601199
0.00638466
0.00690037
0.00742859
0.00808302
0.0091639
0.0111882
0.0125741
0.0150424
0.0167155
0.022765
0.0297063
0.0341705
0.0416039
0.0524481
0.0055317
0.0056063
0.00566562
0.00572703
0.00576401
0.00580544
0.00583716
0.00589732
0.00601357
0.00637755
0.0069016
0.00743966
0.00809382
0.00910457
0.0110692
0.0125635
0.0148796
0.0166054
0.0237857
0.0313931
0.0373286
0.0461956
0.0561023
0.00553152
0.00560554
0.00566978
0.00572957
0.00576402
0.00580089
0.00583208
0.00589703
0.00601154
0.00636774
0.00689963
0.00742236
0.00809216
0.00909632
0.0109954
0.01253
0.0147843
0.0165401
0.0237041
0.0325253
0.0399419
0.0512939
0.0622793
0.00552021
0.00561224
0.00566806
0.00572258
0.00576202
0.00579923
0.00583196
0.00589794
0.00601238
0.00636137
0.00689479
0.00743798
0.00809378
0.00906172
0.0109512
0.0124696
0.014725
0.0163451
0.0236575
0.0333351
0.0406034
0.0544489
0.0665797
0.00551865
0.00560395
0.00566606
0.00572192
0.00576234
0.00579844
0.00583485
0.00589862
0.00601149
0.00634872
0.00688249
0.00742881
0.00805234
0.00903726
0.0109206
0.012432
0.0146469
0.0164444
0.0244532
0.03308
0.0419058
0.0549048
0.0666264
0.00552543
0.00560445
0.00566473
0.00572467
0.00576059
0.00579963
0.00583209
0.00589711
0.00600945
0.00634379
0.00688465
0.00740147
0.00801503
0.00903824
0.0108957
0.0124081
0.0146974
0.01655
0.0251016
0.0335257
0.0420301
0.0552943
0.0669186
0.0055216
0.00560922
0.00566406
0.00572437
0.00575995
0.0057924
0.00582778
0.00589532
0.00600834
0.006332
0.00688347
0.00741012
0.00804071
0.00901737
0.0109009
0.0123911
0.0146783
0.0166647
0.0255215
0.0339839
0.0434429
0.0577429
0.0681762
0.00551505
0.00559856
0.00566964
0.00572218
0.00576272
0.00579081
0.00582595
0.00589109
0.00600405
0.00632924
0.00687644
0.00741116
0.00805123
0.00901978
0.0108934
0.0123979
0.0147183
0.0173518
0.0254563
0.0342864
0.0446779
0.0577536
0.0689553
0.00551179
0.00559781
0.00566914
0.0057185
0.00576368
0.00579128
0.00582916
0.00588876
0.00600468
0.00632836
0.00687518
0.0073973
0.00804099
0.00901832
0.0109299
0.0124033
0.0148289
0.0178672
0.0265285
0.0351492
0.0442316
0.05893
0.0713812
0.00551236
0.00559862
0.00566628
0.00571827
0.00575686
0.00578173
0.00582123
0.00588481
0.00599932
0.00631058
0.00684664
0.00734917
0.00796978
0.00891053
0.0108289
0.0122386
0.0146597
0.0174746
0.0252903
0.0347699
0.0437279
0.0572215
0.071536
0.00549761
0.00560325
0.00565938
0.00570565
0.00574387
0.00578682
0.00582292
0.00588312
0.00599359
0.00629204
0.00681944
0.00730191
0.0078974
0.00880759
0.0106815
0.0122574
0.0145646
0.0173986
0.0251857
0.0332367
0.0433684
0.0577453
0.0683804
0.00549448
0.00559791
0.00565378
0.00570238
0.00573972
0.00577575
0.00581899
0.00587069
0.00598623
0.00627207
0.00679179
0.00726057
0.00782777
0.00870505
0.0105781
0.01248
0.0145383
0.0174845
0.0237909
0.0330397
0.0414613
0.054918
0.0679303
0.00549974
0.00559058
0.00564871
0.0057038
0.00574095
0.00577934
0.00581304
0.00586654
0.00597821
0.00625219
0.00676536
0.00722079
0.00776089
0.00860681
0.0103751
0.0123835
0.0142412
0.0170885
0.0233511
0.0335807
0.0412319
0.0548161
0.0677212
0.00549635
0.00557976
0.00563367
0.00570258
0.00573732
0.0057742
0.00580277
0.00586904
0.00596819
0.00623004
0.00673739
0.00718484
0.00769962
0.00851581
0.0102241
0.0123119
0.0142033
0.0169704
0.0233754
0.033283
0.0419468
0.0554521
0.0672205
0.00548571
0.00555731
0.00562488
0.00569183
0.00572593
0.00576489
0.00578462
0.0058616
0.00595654
0.00620751
0.0067086
0.00715003
0.00764071
0.00842941
0.0100206
0.0123042
0.0141017
0.0167262
0.0223178
0.0314026
0.0412603
0.0540899
0.0651023
0.00547002
0.00552564
0.00560442
0.00568052
0.00570896
0.00575312
0.0057589
0.00584841
0.00594176
0.00618149
0.00667603
0.00711303
0.00758324
0.00834613
0.00982529
0.0123441
0.0140287
0.0175213
0.0210858
0.0303757
0.0384557
0.0521648
0.0630309
0.00544857
0.00551535
0.00558281
0.00566234
0.00568148
0.00573518
0.0057489
0.0058327
0.00592568
0.00615448
0.00664067
0.00707677
0.00752811
0.00826147
0.00963913
0.0122512
0.0139295
0.0172551
0.0221793
0.0276409
0.0373099
0.0476961
0.0578762
0.00543005
0.00551944
0.0055721
0.00563923
0.0056438
0.00572087
0.00574844
0.00581116
0.00590375
0.0061224
0.00659895
0.0070339
0.0074708
0.00818424
0.00953199
0.0117123
0.0140689
0.0191141
0.0231079
0.0273103
0.033923
0.0429531
0.0597323
0.00540845
0.00550742
0.00553594
0.00561953
0.00562944
0.00569796
0.00573261
0.00578962
0.00588137
0.00608882
0.00655254
0.00699076
0.00741477
0.00810116
0.0093299
0.01156
0.0139842
0.0201785
0.0238254
0.0292755
0.0335327
0.0456403
0.0658986
0.00538462
0.00548439
0.0054831
0.00559074
0.0056281
0.00567375
0.00570697
0.00576106
0.00585211
0.00604855
0.00649719
0.00693601
0.0073516
0.00801894
0.00915001
0.0116075
0.0157525
0.0233173
0.0256231
0.0295927
0.0331188
0.0457499
0.0680977
0.00535279
0.00545717
0.005465
0.00555924
0.00560686
0.00564188
0.0056791
0.00573072
0.00582052
0.00600655
0.0064362
0.00688067
0.00728866
0.00793859
0.00898739
0.0112287
0.0178458
0.0255588
0.0295849
0.0359648
0.0369874
0.0468695
0.0744264
0.00531098
0.00542085
0.00546856
0.00551928
0.00557077
0.00560202
0.0056439
0.0056929
0.00577997
0.00595508
0.00636378
0.00680709
0.00721183
0.00785005
0.00886437
0.0104623
0.0192728
0.0288761
0.0309383
0.0359919
0.0407083
0.0556865
0.0826688
0.00526992
0.00538094
0.00544496
0.00547546
0.0055302
0.00556372
0.00560743
0.00565492
0.00573825
0.00590181
0.00628533
0.00673152
0.00713169
0.00775661
0.00875123
0.0103608
0.023073
0.0316734
0.0355451
0.0417821
0.0510318
0.0695865
0.0869187
0.00522112
0.00532912
0.00540119
0.00542983
0.00547988
0.00551664
0.00555956
0.00560622
0.00568507
0.00583606
0.00619266
0.00663153
0.0070332
0.00764522
0.00861695
0.0103545
0.0232899
0.0371909
0.0406931
0.0476606
0.0612517
0.0802551
0.0893532
0.00516051
0.00527398
0.00534983
0.00538501
0.00542886
0.00546746
0.00550892
0.00555563
0.0056303
0.00576886
0.00609619
0.00652545
0.00692893
0.00752262
0.00845566
0.0103594
0.0256305
0.0409904
0.047908
0.0538602
0.0692191
0.0910229
0.0930253
0.00508838
0.00520473
0.00528266
0.0053248
0.00536443
0.00540226
0.00544217
0.00548854
0.0055582
0.0056844
0.00598123
0.00639334
0.00679284
0.00739737
0.00829632
0.00954927
0.0213569
0.0473674
0.0524029
0.0633914
0.0777389
0.0987505
0.0985103
0.00500888
0.00513368
0.0052119
0.00525957
0.00529815
0.00533407
0.00537336
0.00541921
0.00548434
0.00559898
0.00586615
0.0062589
0.00664741
0.00728754
0.00803657
0.00924504
0.0229258
0.0464466
0.0631512
0.0721831
0.0894336
0.0991139
0.102834
0.00491427
0.00504539
0.00512234
0.00517284
0.00521176
0.00524523
0.00528361
0.00532757
0.00538734
0.00549013
0.00572077
0.00610051
0.0064725
0.00712732
0.00764956
0.00919464
0.0221475
0.0510191
0.0615924
0.0730586
0.0953564
0.103912
0.115123
0.00482517
0.00495669
0.00503076
0.00508345
0.00512373
0.00515602
0.00519411
0.00523614
0.00529138
0.00538341
0.00557979
0.00593904
0.00629957
0.00692083
0.00754686
0.0090365
0.0237476
0.052992
0.0677488
0.0740598
0.0964865
0.11275
0.131946
0.00472107
0.00484428
0.00491474
0.00496798
0.00500849
0.00503997
0.00507656
0.00511549
0.00516503
0.00524592
0.00540967
0.00573271
0.0060851
0.0066527
0.00759134
0.00927046
0.0274011
0.0463934
0.0611955
0.0838745
0.101323
0.123278
0.132985
0.00462109
0.00473406
0.0048005
0.00485475
0.00489541
0.00492764
0.00496344
0.0050002
0.00504541
0.00511669
0.00525297
0.00553297
0.00587447
0.00639904
0.00740388
0.00911904
0.0220415
0.0434836
0.0700685
0.090566
0.112352
0.123981
0.126233
0.00449266
0.00459196
0.00465455
0.00470787
0.0047465
0.00477851
0.00481172
0.00484518
0.00488456
0.00494526
0.00505649
0.00528689
0.00560499
0.00609124
0.0070555
0.0104236
0.0233782
0.0436139
0.0678514
0.101145
0.115455
0.121016
0.140494
0.00436894
0.00445875
0.00451861
0.00457116
0.00460828
0.00464118
0.00467316
0.00470502
0.00474102
0.00479331
0.0048855
0.0050731
0.0053596
0.00580963
0.00670113
0.010934
0.0231235
0.0429157
0.0741825
0.101417
0.110422
0.132581
0.165594
0.00420551
0.00428365
0.00434002
0.00438875
0.00442154
0.00445243
0.00448062
0.00450873