/*--------------------------------*- C++ -*----------------------------------*\
  =========                 |
  \\      /  F ield         | OpenFOAM: The Open Source CFD Toolbox
   \\    /   O peration     | Website:  https://openfoam.org
    \\  /    A nd           | Version:  7
     \\/     M anipulation  |
\*---------------------------------------------------------------------------*/
FoamFile
{
    version     2.0;
    format      ascii;
    class       volScalarField;
    location    "81";
    object      nut;
}
// * * * * * * * * * * * * * * * * * * * * * * * * * * * * * * * * * * * * * //

dimensions      [0 2 -1 0 0 0 0];

internalField   nonuniform List<scalar> 
12842
(
0.0018103
0.00179588
0.0017819
0.00176664
0.0017664
0.00176052
0.00176676
0.00175932
0.00176658
0.00175964
0.00176895
0.00177428
0.00178624
0.0011013
0.000555496
0.000319994
0.000211363
0.000151921
0.000116335
9.29106e-05
7.69783e-05
6.5767e-05
5.79189e-05
0.00180798
0.00179802
0.00179008
0.00177792
0.00177212
0.00176162
0.00176637
0.00175874
0.00176597
0.00175968
0.00176889
0.00177489
0.00178725
0.001077
0.000543911
0.000314919
0.000208406
0.000150096
0.00011527
9.21864e-05
7.63911e-05
6.55497e-05
5.75889e-05
0.00180413
0.00179128
0.0017829
0.00176939
0.00176623
0.00176067
0.00176521
0.00175812
0.00176482
0.00176032
0.00176899
0.00177657
0.00179134
0.00104108
0.000529326
0.000308428
0.000204722
0.000147643
0.000113774
9.12321e-05
7.56885e-05
6.51924e-05
5.71563e-05
0.0018085
0.00178843
0.00178767
0.0017779
0.00177266
0.00176205
0.001765
0.00175809
0.0017644
0.00176062
0.00176884
0.00177759
0.00179383
0.00100037
0.000513215
0.00030123
0.000200723
0.000145068
0.00011194
9.00197e-05
7.47416e-05
6.49063e-05
5.66045e-05
0.00180179
0.00178703
0.00177409
0.00177066
0.0017649
0.00176084
0.00176403
0.00175798
0.0017637
0.00176144
0.00176888
0.00177914
0.00179801
0.000965205
0.000499572
0.000295141
0.000197594
0.000142761
0.000110264
8.87999e-05
7.38344e-05
6.43166e-05
5.61036e-05
0.00180558
0.00178552
0.00178183
0.00177314
0.00176954
0.00176122
0.00176375
0.00175807
0.00176329
0.00176168
0.00176881
0.0017805
0.00180357
0.000937093
0.000489278
0.000291091
0.000195262
0.00014131
0.000108947
8.78681e-05
7.31458e-05
6.38755e-05
5.55601e-05
0.00179918
0.00178427
0.00176906
0.00177058
0.00176402
0.00176115
0.00176236
0.00175747
0.00176261
0.00176224
0.0017693
0.00178269
0.00180746
0.000930441
0.000488388
0.000291176
0.000195586
0.000140894
0.000108687
8.72538e-05
7.24805e-05
6.34906e-05
5.50711e-05
0.00180147
0.00178349
0.00177604
0.00176957
0.00176495
0.00176074
0.00176255
0.00175857
0.00176169
0.00176206
0.00176821
0.00178279
0.0018128
0.000913162
0.000484857
0.000291576
0.000195612
0.000140729
0.000107799
8.60846e-05
7.13619e-05
6.2822e-05
5.4184e-05
0.00179611
0.00178239
0.00176632
0.00176977
0.00176299
0.00176094
0.00176065
0.0017573
0.00176114
0.00176202
0.00176986
0.00178422
0.00181589
0.000901747
0.00048296
0.000292588
0.000197835
0.000141906
0.000108289
8.61095e-05
7.10414e-05
6.24658e-05
5.35985e-05
0.00179749
0.00178123
0.00176998
0.0017675
0.00176175
0.00176096
0.00176099
0.00175827
0.00175998
0.00176144
0.0017705
0.00178536
0.0018186
0.000905951
0.000487021
0.000295717
0.000199285
0.000143064
0.000108609
8.63525e-05
7.09169e-05
6.23416e-05
5.33503e-05
0.00179272
0.00178029
0.0017642
0.00176781
0.00176073
0.00176113
0.00175937
0.00175719
0.00175939
0.00176114
0.00177135
0.00178622
0.00182285
0.000894112
0.000483461
0.00029488
0.000199691
0.000142943
0.000108502
8.59606e-05
7.03339e-05
6.17853e-05
5.26834e-05
0.00179378
0.00177888
0.00176465
0.00176578
0.00175923
0.00176106
0.00175922
0.00175763
0.00175827
0.0017605
0.00177193
0.00178724
0.00182442
0.000885281
0.000482189
0.000296916
0.000201264
0.000143963
0.000108635
8.58558e-05
6.99204e-05
6.13399e-05
5.20722e-05
0.00178922
0.00177783
0.00176193
0.00176575
0.00175855
0.00176144
0.00175805
0.00175656
0.00175752
0.00176017
0.00177309
0.00178928
0.00180502
0.000874999
0.0004816
0.000298463
0.000203018
0.000145054
0.000109284
8.58349e-05
6.94846e-05
6.08208e-05
5.13939e-05
0.00179041
0.00177638
0.00176061
0.00176441
0.00175736
0.0017614
0.00175702
0.00175663
0.00175637
0.00175967
0.00177407
0.00179071
0.00177141
0.000865004
0.00048033
0.000301641
0.000206021
0.000147085
0.000109972
8.6062e-05
6.91981e-05
6.04268e-05
5.08101e-05
0.0017865
0.00177493
0.00175924
0.00176419
0.00175746
0.00176177
0.0017564
0.00175548
0.0017555
0.00175933
0.0017753
0.00179292
0.0017357
0.0008538
0.000480343
0.000304478
0.000209071
0.000149595
0.000111686
8.65527e-05
6.8946e-05
5.99128e-05
5.01223e-05
0.00178716
0.00177357
0.00175783
0.00176349
0.00175651
0.00176214
0.00175503
0.00175544
0.00175446
0.00175921
0.00177681
0.00179504
0.00170362
0.000844397
0.000481572
0.000309783
0.000214285
0.000153528
0.000113702
8.75192e-05
6.93131e-05
5.96829e-05
5.00844e-05
0.00178468
0.00177176
0.00175702
0.00176298
0.00175752
0.00176231
0.00175469
0.00175452
0.00175351
0.00175899
0.00177958
0.00179629
0.00167011
0.000834243
0.000482416
0.000314265
0.000219932
0.00015865
0.000117041
8.90212e-05
7.00439e-05
5.92035e-05
5.00018e-05
0.00178449
0.00177046
0.00175593
0.00176256
0.00175685
0.00176287
0.00175382
0.00175424
0.00175277
0.00175931
0.00178109
0.00179827
0.0016384
0.000825772
0.00048534
0.000321777
0.000229611
0.000166357
0.000121772
9.13031e-05
7.18134e-05
5.95324e-05
5.06922e-05
0.00178341
0.0017687
0.00175595
0.00176159
0.00175847
0.00176281
0.00175356
0.001754
0.00175195
0.00175941
0.00178197
0.00180087
0.00160751
0.000817077
0.000488049
0.000329646
0.000240672
0.000176811
0.000128415
9.50274e-05
7.41141e-05
6.01602e-05
5.15317e-05
0.0017826
0.00176742
0.00175488
0.00176119
0.0017579
0.0017631
0.00175349
0.00175344
0.00175166
0.00176034
0.00178303
0.00180328
0.00158125
0.00081053
0.000491506
0.000340834
0.000258839
0.000193174
0.000139583
0.000100826
7.7784e-05
6.22687e-05
5.34572e-05
0.00178195
0.00176615
0.00175566
0.00175982
0.00175967
0.00176262
0.00175354
0.00175366
0.00175133
0.00176147
0.00178545
0.00180846
0.00154865
0.000799117
0.000494782
0.000352195
0.000280932
0.000217285
0.000155782
0.000110394
8.34153e-05
6.57932e-05
5.59127e-05
0.00178113
0.00176495
0.00175477
0.00175939
0.00175895
0.00176244
0.00175401
0.0017532
0.00175157
0.00176321
0.00178737
0.00181338
0.00153343
0.00080025
0.000505144
0.000369238
0.00031894
0.000261202
0.000184364
0.000124057
9.05711e-05
7.12618e-05
6.07913e-05
0.00178037
0.00176423
0.00175535
0.00175809
0.00176011
0.00176167
0.00175449
0.00175356
0.00175176
0.00176472
0.00178916
0.00181838
0.00145819
0.0007677
0.000501116
0.000379072
0.000362556
0.000339194
0.000230256
0.00014411
0.000102691
8.14233e-05
6.77109e-05
0.00177942
0.00176341
0.00175544
0.00175759
0.00175969
0.00176103
0.00175535
0.00175334
0.00175258
0.00176597
0.00178939
0.00183256
0.00138958
0.000741036
0.000495215
0.0003869
0.00042355
0.000542463
0.000330444
0.000172023
0.00011501
9.0756e-05
7.65881e-05
0.00177926
0.00176319
0.00175555
0.00175691
0.00175959
0.00176011
0.00175625
0.00175348
0.00175313
0.00176693
0.00179389
0.00183535
0.00138916
0.000743524
0.000500544
0.000392878
0.000469934
0.00122604
0.000477047
0.000195277
0.000131044
0.000112761
9.76339e-05
0.00177838
0.00176279
0.00175581
0.00175716
0.00175864
0.00175963
0.00175697
0.00175344
0.00175382
0.00176796
0.00179445
0.00184002
0.00135805
0.000725119
0.000481894
0.000390011
0.000472203
0.00125122
0.000462635
0.000208711
0.000152179
0.000144024
0.000135898
0.00177801
0.00176262
0.00175566
0.00175645
0.00175804
0.00175877
0.00175748
0.00175334
0.00175464
0.00176881
0.0017945
0.00184773
0.00132601
0.000706615
0.000459435
0.000375096
0.000428119
0.000580979
0.000349099
0.000227779
0.000213304
0.000218556
0.000170116
0.00177746
0.00176235
0.00175616
0.00175714
0.00175666
0.00175839
0.00175822
0.00175296
0.00175514
0.00177059
0.00180105
0.00186106
0.00130128
0.00069289
0.000438502
0.00036041
0.000372537
0.000381721
0.000303468
0.000275722
0.000267503
0.000248371
0.000232742
0.00177685
0.00176197
0.00175581
0.00175643
0.00175582
0.00175777
0.00175782
0.00175309
0.00175565
0.00177332
0.00181533
0.00188399
0.00128187
0.000680897
0.000419529
0.000340076
0.000326035
0.000305117
0.000280582
0.000276258
0.000300078
0.000509113
0.00189162
0.00177657
0.00176187
0.00175662
0.00175714
0.00175426
0.00175749
0.00175771
0.00175282
0.00175664
0.00178117
0.00183639
0.00192033
0.00124812
0.000655253
0.000406958
0.000322115
0.000286862
0.000276001
0.000295747
0.000392105
0.000894026
0.00232961
0.00276662
0.00177586
0.00176111
0.00175625
0.00175649
0.00175336
0.00175693
0.00175754
0.00175235
0.0017594
0.0017966
0.00186112
0.00195573
0.00122352
0.000625599
0.000393328
0.000303015
0.000270433
0.000274091
0.000322137
0.00054193
0.00147233
0.00166399
0.0027004
0.00177527
0.00176102
0.00175719
0.00175657
0.00175207
0.00175621
0.00175644
0.00175263
0.00176752
0.00181525
0.00189519
0.00200369
0.00118931
0.000610368
0.000385279
0.000294082
0.000259375
0.000268967
0.000322699
0.000618467
0.00105568
0.00175515
0.00260423
0.00177506
0.00175993
0.00175695
0.00175594
0.00175087
0.00175612
0.00175566
0.00175602
0.0017811
0.00184123
0.00193333
0.00205159
0.00116636
0.000600394
0.000376763
0.000281299
0.00024908
0.000243106
0.000295144
0.000591891
0.000933973
0.00154141
0.00214573
0.0017735
0.00175984
0.00175794
0.00175579
0.00174934
0.00175544
0.00175926
0.00176506
0.00180023
0.00187067
0.00197911
0.00210127
0.00117384
0.000601118
0.000373143
0.000278006
0.000236503
0.00021846
0.000329717
0.000543554
0.000802119
0.00115743
0.00164865
0.00177403
0.00175814
0.00175754
0.00175415
0.00174883
0.00175482
0.00176875
0.00178
0.00182266
0.00190648
0.00201956
0.0021457
0.00117579
0.000603077
0.00037118
0.000268366
0.000215845
0.000189586
0.000295876
0.000509771
0.000618735
0.000830004
0.00104897
0.00177181
0.00175807
0.00175843
0.00175378
0.00174738
0.0017568
0.00178398
0.00180051
0.00185119
0.0019405
0.00205793
0.00217679
0.0012063
0.000611137
0.000367744
0.000259853
0.000199824
0.000177631
0.000292931
0.000429548
0.000441152
0.000559301
0.000639507
0.00177225
0.00175608
0.00175768
0.00175284
0.00174649
0.00176413
0.00180306
0.00182402
0.00188072
0.00197556
0.00208916
0.00220793
0.00122401
0.00061982
0.000372491
0.000254631
0.00018832
0.000169031
0.000298873
0.000373499
0.000356956
0.000472949
0.000524717
0.00177066
0.00175502
0.00175835
0.00175218
0.00174906
0.00177717
0.00182636
0.00185149
0.00191055
0.00200218
0.00211542
0.00222249
0.00127361
0.000636573
0.000368197
0.000244417
0.000178604
0.000168555
0.000329621
0.000332603
0.00027158
0.000432513
0.000414579
0.00177002
0.00175354
0.0017574
0.00175098
0.00175691
0.00179458
0.0018524
0.00187897
0.00193601
0.00202813
0.00213582
0.00224012
0.00129839
0.000645418
0.000376058
0.000244685
0.000176825
0.000172903
0.000354997
0.000257567
0.00020922
0.000354894
0.00044234
0.00176949
0.00175168
0.00175792
0.00175735
0.00177155
0.00181541
0.00187956
0.00190403
0.00195825
0.00204553
0.00214836
0.0022402
0.00136724
0.000674154
0.000378295
0.000239514
0.000175032
0.000179014
0.000419587
0.000203198
0.000180888
0.000394889
0.000421074
0.00176822
0.00174958
0.00175787
0.00176572
0.00179081
0.00184173
0.00190397
0.00192625
0.0019751
0.00205965
0.00215723
0.00224573
0.00139573
0.000681534
0.000383537
0.000244796
0.000178179
0.000191876
0.000550617
0.000185703
0.000138105
0.000341168
0.000442712
0.00176773
0.00174891
0.00176001
0.00178397
0.00181291
0.0018675
0.00192544
0.00194423
0.00198747
0.00206715
0.00215768
0.00223576
0.00147784
0.000719606
0.000398245
0.000245337
0.000181553
0.000203136
0.00067889
0.000153102
0.000145534
0.000325617
0.000503849
0.00176651
0.00174835
0.00176743
0.00180324
0.00183924
0.00189349
0.00194273
0.00195778
0.0019947
0.00207008
0.00215622
0.0022327
0.00151387
0.000732534
0.00040277
0.000256055
0.0001896
0.000211243
0.000733447
0.000140247
0.000130296
0.000204963
0.000454566
0.00176656
0.00174676
0.00177964
0.00182926
0.00186505
0.00191448
0.00195564
0.001967
0.00199795
0.00206871
0.00214811
0.0022165
0.00160418
0.00077664
0.000426947
0.000262615
0.000195664
0.000216024
0.000774129
0.000141678
0.000127222
0.000208659
0.00057316
0.00176491
0.00174973
0.00179677
0.00185527
0.00188993
0.00193371
0.00196449
0.00197168
0.00199688
0.00206304
0.00213926
0.00220936
0.00164838
0.000796865
0.000439026
0.000278329
0.000207704
0.000213415
0.00066107
0.000166969
0.000117849
0.000171661
0.000512278
0.00176623
0.00175886
0.00181636
0.00188481
0.00191086
0.00194768
0.00196896
0.001973
0.00199332
0.00205513
0.00212624
0.00218898
0.00175004
0.000852548
0.000473828
0.000295195
0.000213893
0.000202265
0.000386532
0.000194642
0.000130037
0.000158103
0.000399993
0.00176527
0.00177238
0.00183981
0.00191133
0.00192817
0.00195801
0.00197064
0.00197093
0.00198667
0.00204413
0.00211384
0.00218093
0.00180717
0.000884454
0.000494355
0.000311339
0.000223471
0.000205216
0.000299241
0.000269188
0.000240789
0.000254429
0.000420346
0.00176762
0.00179286
0.00186455
0.00193677
0.00194158
0.00196469
0.00196932
0.00196699
0.00197921
0.00203303
0.00209936
0.00215917
0.00192124
0.00095512
0.000546189
0.000342872
0.000232207
0.000205778
0.000290998
0.000424845
0.00045722
0.000606721
0.000654789
0.00176902
0.00181375
0.00189145
0.00195869
0.00195091
0.00196799
0.00196677
0.00196145
0.00197015
0.00201975
0.00208609
0.0021512
0.00195684
0.000988273
0.000578841
0.00036861
0.00026588
0.00026053
0.000436524
0.000872501
0.000817503
0.000703768
0.000679605
0.00177103
0.00184106
0.00191805
0.00197816
0.00195648
0.00196856
0.00196198
0.00195434
0.00196028
0.00200685
0.00207176
0.00213024
0.00203537
0.00106402
0.000655338
0.000436
0.000315712
0.000386842
0.000793752
0.000691233
0.000682704
0.000668698
0.000793681
0.00177798
0.00186846
0.00193987
0.00199098
0.00195713
0.00196521
0.00195595
0.00194627
0.00194966
0.00199245
0.00205757
0.00211853
0.00206235
0.00110282
0.000698516
0.000486846
0.000500421
0.000736229
0.000793052
0.000645794
0.000662169
0.00083379
0.001169
0.00179149
0.00189861
0.00195708
0.00199895
0.00195355
0.00195945
0.00194845
0.00193745
0.00193892
0.00197936
0.00204501
0.00210108
0.00207006
0.00118547
0.000802363
0.000656826
0.000747374
0.000987249
0.000692807
0.000613157
0.000742593
0.000957601
0.00139685
0.0018108
0.00192592
0.00196929
0.00200114
0.00194757
0.00195171
0.00194069
0.00192862
0.00192836
0.00196596
0.00203244
0.00208852
0.002053
0.00122119
0.000874452
0.000867535
0.00122612
0.00078237
0.000571415
0.000623126
0.000733407
0.00126757
0.00180543
0.00183054
0.00194907
0.00197718
0.00199976
0.00193885
0.00194253
0.00193236
0.00191988
0.00191845
0.00195427
0.00202229
0.00207422
0.00202584
0.00132491
0.00107639
0.00138577
0.00104997
0.00067423
0.000623866
0.00079659
0.00116509
0.00174602
0.00213041
0.0018511
0.00196771
0.00198071
0.00199438
0.00192972
0.00193268
0.00192417
0.00191163
0.00190922
0.0019431
0.00201279
0.00206315
0.00200664
0.00134767
0.00124682
0.00135324
0.000875311
0.00060607
0.00058535
0.000854383
0.0013288
0.0020482
0.00233975
0.00187239
0.00197994
0.00198034
0.00198648
0.00191894
0.00192176
0.00191565
0.00190359
0.00190089
0.00193353
0.00200529
0.0020521
0.00198104
0.00153661
0.00158406
0.00117873
0.000763066
0.000577526
0.000660328
0.00115366
0.00159571
0.00216958
0.00241013
0.00189059
0.0019854
0.00197631
0.00197635
0.00190913
0.00191128
0.00190767
0.00189658
0.00189396
0.00192554
0.00199933
0.00204371
0.00195835
0.00175203
0.00147711
0.00106287
0.000701728
0.000596738
0.000811821
0.00139507
0.00190683
0.0023993
0.00261644
0.001903
0.00198599
0.00197029
0.00196579
0.00189925
0.00190086
0.00189991
0.00189005
0.00188797
0.00191877
0.00199472
0.00203607
0.00193466
0.00169402
0.00137103
0.000984196
0.000674206
0.000650209
0.000909803
0.00142125
0.0020435
0.00254009
0.00293804
0.00191198
0.00198272
0.00196278
0.0019543
0.00189057
0.00189089
0.00189233
0.00188396
0.00188266
0.0019129
0.00199128
0.00202914
0.00190631
0.00162883
0.001287
0.000918329
0.000677916
0.000695566
0.000943599
0.00149756
0.00218022
0.00265555
0.0031843
0.00191706
0.00197673
0.00195391
0.00194265
0.00188203
0.00188107
0.00188503
0.00187839
0.00187828
0.00190815
0.00198896
0.00202256
0.00187592
0.00156052
0.00122175
0.000873402
0.000678211
0.000718449
0.000969416
0.00144539
0.00216715
0.0026502
0.00321004
0.00191906
0.00196767
0.00194417
0.00193093
0.00187495
0.00187233
0.00187807
0.00187305
0.00187428
0.00190412
0.00198765
0.00201626
0.00184211
0.00150197
0.00116173
0.000840503
0.000686265
0.000720258
0.000977344
0.00146688
0.00217472
0.00265317
0.00324547
0.00191812
0.00195751
0.00193352
0.00191918
0.00186818
0.00186378
0.00187165
0.00186836
0.00187112
0.00190104
0.00198704
0.00200966
0.00180626
0.00143955
0.00112333
0.000825407
0.000701423
0.000720291
0.00100713
0.00146785
0.00218837
0.00265577
0.00321925
0.00191533
0.00194541
0.00192255
0.00190804
0.00186289
0.00185685
0.00186557
0.00186369
0.00186809
0.0018985
0.00198719
0.00200322
0.00177035
0.00139609
0.00108286
0.000816929
0.000713672
0.00073481
0.00102234
0.00153769
0.00212248
0.0025792
0.00318916
0.00191056
0.00193351
0.00191131
0.00189706
0.00185792
0.00185009
0.00186049
0.00185976
0.00186576
0.00189672
0.00198769
0.00199628
0.00173326
0.00134107
0.00104815
0.000821625
0.000718516
0.000757996
0.00107672
0.00155524
0.00209211
0.00254602
0.00302585
0.00190579
0.00192101
0.00190035
0.00188728
0.00185444
0.00184522
0.00185556
0.00185585
0.00186341
0.00189536
0.00198861
0.00198932
0.00169639
0.00130568
0.0010173
0.000831608
0.000720203
0.000790655
0.00110126
0.00150566
0.00188551
0.00230927
0.00283589
0.00189988
0.00190955
0.00189003
0.00187779
0.00185102
0.00184055
0.00185192
0.00185269
0.00186164
0.00189453
0.00198968
0.00198154
0.00165719
0.00125137
0.000984144
0.000842612
0.000723587
0.000819517
0.00109506
0.0014268
0.00168936
0.00201174
0.00258707
0.00189513
0.00189865
0.00188038
0.00187011
0.00184929
0.00183772
0.00184842
0.00184958
0.0018598
0.00189414
0.00199093
0.00197304
0.00161667
0.00121578
0.000965929
0.000849938
0.000735037
0.000845232
0.00107253
0.00133777
0.00150533
0.00174607
0.00231807
0.00189033
0.00188924
0.00187222
0.00186263
0.00184712
0.00183506
0.00184593
0.00184732
0.00185844
0.00189407
0.0019922
0.00196315
0.00157275
0.00116753
0.00094377
0.000846792
0.000749914
0.000860085
0.00103817
0.00124102
0.00134301
0.00152257
0.00205911
0.00188674
0.00188077
0.00186491
0.00185734
0.0018469
0.00183401
0.00184394
0.00184499
0.00185694
0.0018944
0.00199338
0.00195251
0.00153084
0.00113332
0.000934571
0.000848793
0.000766064
0.00086655
0.00100002
0.00115158
0.00120704
0.00137401
0.00179383
0.00188383
0.00187439
0.00185939
0.00185232
0.00184569
0.00183311
0.00184221
0.00184355
0.00185602
0.001895
0.00199433
0.00194054
0.00149043
0.00109983
0.000931601
0.000846958
0.000778895
0.00086611
0.000957772
0.00106735
0.00108203
0.00129604
0.00143449
0.00188217
0.00186816
0.00185469
0.00184922
0.00184667
0.00183323
0.00184141
0.00184217
0.00185467
0.00189582
0.00199503
0.00192915
0.00145494
0.00108049
0.000923886
0.000833966
0.000780541
0.000858306
0.000916217
0.000988411
0.000977854
0.00117585
0.00114513
0.00188085
0.00186486
0.00185177
0.00184654
0.00184609
0.00183378
0.00184029
0.0018412
0.00185345
0.00189683
0.00199522
0.00191779
0.00142555
0.00106606
0.000911811
0.000803751
0.000775631
0.000845361
0.000875666
0.000917788
0.000903533
0.00103663
0.000958066
0.00188098
0.00186053
0.00184912
0.00184559
0.00184768
0.00183436
0.00183998
0.00184067
0.00185304
0.00189773
0.00199521
0.00190761
0.00140146
0.00105043
0.000875982
0.000773697
0.000764043
0.000827451
0.000838565
0.000852031
0.000854839
0.000884565
0.00086334
0.00188142
0.00185951
0.00184837
0.00184435
0.00184778
0.00183579
0.00183947
0.00184032
0.00185126
0.00189869
0.00199504
0.00190234
0.00137755
0.00101706
0.000835014
0.000746625
0.000749546
0.000810017
0.000807491
0.000791098
0.000794504
0.000778569
0.00076114
0.00188158
0.00185677
0.00184707
0.00184522
0.00184888
0.00183667
0.00183929
0.00183976
0.00184934
0.00189955
0.00199447
0.00189697
0.00136048
0.000983161
0.000793816
0.000719755
0.00073231
0.000792382
0.000774774
0.000743388
0.000744952
0.000732923
0.000794241
0.00188409
0.00185663
0.00184744
0.00184483
0.00184968
0.00183768
0.00183843
0.00184055
0.00184948
0.00190046
0.00199389
0.00189104
0.00134023
0.000945399
0.000763633
0.000696962
0.000714389
0.000773455
0.0007483
0.000708581
0.000707843
0.000690496
0.000784211
0.00188415
0.00185594
0.00184752
0.0018467
0.00185007
0.00183943
0.00183959
0.0018395
0.00184899
0.00190184
0.00199404
0.00188437
0.00132024
0.000917842
0.000741633
0.000676605
0.000699705
0.000759396
0.000732593
0.000692873
0.000697874
0.000737951
0.000755553
0.00188482
0.0018551
0.00184753
0.00184625
0.00185116
0.00183962
0.0018372
0.00184046
0.00184834
0.00190336
0.00199433
0.00187955
0.00131367
0.000904835
0.000726162
0.000662639
0.000687661
0.000740247
0.000721773
0.000684662
0.000666171
0.000774348
0.00079337
0.00188751
0.00185529
0.00184839
0.00184895
0.00185017
0.00184059
0.00183806
0.00184075
0.00184811
0.00190495
0.00199196
0.0018754
0.00131455
0.000898652
0.000718284
0.000655264
0.00068354
0.000730182
0.000726406
0.000700544
0.000692008
0.00075182
0.000799454
0.00188537
0.00185623
0.00184875
0.00184849
0.00185194
0.00184164
0.00183724
0.00183752
0.00184787
0.0019063
0.00198846
0.00187676
0.00132607
0.0009079
0.000714393
0.000656324
0.000688933
0.000730308
0.000725537
0.000699132
0.000725094
0.000771283
0.000770778
0.00187765
0.00185173
0.00184738
0.00184665
0.00184984
0.001841
0.0018357
0.0018382
0.00184733
0.00190703
0.0019843
0.00187788
0.00134968
0.000919363
0.000716765
0.000666784
0.000706942
0.000744433
0.000735604
0.000736545
0.000732798
0.000784865
0.000752351
0.0018732
0.00184621
0.0018445
0.00184372
0.00184616
0.00183568
0.00183062
0.00183697
0.00184765
0.0019079
0.00198009
0.0018844
0.00137859
0.000942887
0.000722462
0.000686489
0.00072684
0.000767966
0.000791801
0.00076603
0.000749189
0.000789609
0.000778853
0.00186232
0.00184237
0.0018356
0.00183756
0.00183945
0.00183124
0.00182725
0.00183691
0.00184743
0.00190794
0.00197591
0.00188844
0.00141091
0.00097656
0.000730751
0.000713055
0.000776602
0.000794464
0.000825942
0.000787813
0.000779217
0.000782895
0.000785599
0.00184993
0.00183092
0.00183254
0.00183123
0.00183482
0.00182901
0.00182686
0.00183659
0.00184655
0.00190756
0.00197233
0.00189833
0.00146646
0.00100813
0.000741479
0.000748564
0.000834294
0.000861156
0.000852331
0.000807282
0.000793219
0.000791513
0.000808353
0.00184756
0.0018304
0.00182653
0.00183387
0.0018311
0.00182717
0.00182612
0.00183634
0.00184678
0.0019063
0.00196808
0.00190504
0.00152551
0.00105015
0.00075317
0.000786528
0.000883852
0.000892032
0.000873095
0.000842554
0.000838292
0.00086048
0.000886402
0.00184735
0.00183126
0.00182364
0.00183146
0.00183048
0.00182904
0.00182598
0.00183474
0.00184673
0.00190534
0.00196632
0.00191353
0.00158582
0.00109771
0.000767075
0.000826384
0.000941693
0.000943583
0.000900131
0.000908113
0.000895182
0.000933167
0.000986165
0.00184093
0.00182921
0.00182412
0.00183028
0.00183123
0.00182729
0.00182704
0.00183483
0.00184699
0.00190344
0.00196328
0.00192887
0.00163728
0.00114789
0.00078283
0.000862869
0.000986477
0.000954761
0.000957974
0.000971048
0.000978521
0.00103296
0.00117321
0.0018404
0.00182855
0.00182541
0.00182624
0.00183259
0.00182618
0.0018261
0.00183494
0.00184628
0.00190151
0.0019606
0.00194052
0.00169074
0.00118882
0.000799757
0.000906588
0.00101278
0.000966919
0.00103075
0.00105305
0.0010568
0.00117375
0.00135735
0.00183876
0.001828
0.00182318
0.00182439
0.00183032
0.00182698
0.00182655
0.0018332
0.00184696
0.00189954
0.00196529
0.00196147
0.0017356
0.00121458
0.000817607
0.000939511
0.00102794
0.00097038
0.00107911
0.0011248
0.00116532
0.00131104
0.00143853
0.00183341
0.00182516
0.00182318
0.0018266
0.00183033
0.00182588
0.00182498
0.00183391
0.00184613
0.00189683
0.00196911
0.00196714
0.00176055
0.00124207
0.000837231
0.000962397
0.00104074
0.000979057
0.00107893
0.00117426
0.00125392
0.00147538
0.00158097
0.00183072
0.00182929
0.00182157
0.00182318
0.00182947
0.00182435
0.00182486
0.00183361
0.00184732
0.00189543
0.00197097
0.001979
0.00177574
0.00126096
0.000858214
0.000977303
0.00104859
0.000973331
0.00106963
0.00120487
0.00128872
0.00155819
0.00170531
0.00183018
0.00182675
0.0018232
0.00182503
0.00182855
0.00182572
0.00182582
0.00183466
0.00184751
0.00189208
0.00197135
0.00198322
0.0017744
0.00127669
0.000880806
0.000988167
0.00105116
0.000982618
0.00110667
0.0011892
0.00133681
0.00158552
0.00170766
0.00183221
0.00182637
0.00182296
0.00182588
0.00182985
0.00182591
0.00182488
0.00183402
0.00184715
0.00189176
0.00197384
0.00197624
0.00176862
0.00128994
0.000899895
0.000996952
0.00106078
0.000991206
0.0011379
0.00121969
0.0013412
0.00160027
0.00167647
0.00183194
0.00182812
0.00182213
0.00182438
0.00182975
0.00182403
0.00182405
0.00183329
0.00184747
0.00188904
0.001977
0.00197943
0.00178288
0.0012964
0.000921914
0.00100179
0.00106182
0.00100414
0.00115812
0.00123795
0.00139422
0.0016685
0.001723
0.00182973
0.00182383
0.00182671
0.00182617
0.00183
0.00182374
0.00182369
0.00183368
0.00184611
0.00188962
0.00197552
0.00198084
0.00178639
0.00130082
0.000937015
0.00100908
0.00106866
0.00104884
0.00115598
0.00125143
0.00144331
0.00169143
0.00174791
0.00182965
0.00182515
0.00182693
0.0018253
0.00183263
0.00182349
0.00182381
0.00183311
0.00184594
0.00188938
0.00197512
0.00197681
0.00177993
0.00128753
0.000939274
0.00101007
0.00107276
0.00106426
0.0011723
0.00126518
0.00141569
0.00171796
0.00178474
0.00183017
0.00182478
0.00182563
0.00182429
0.00183106
0.00182322
0.00182305
0.00183148
0.00184504
0.00188702
0.00197106
0.00197314
0.00178707
0.00130749
0.000953891
0.00100403
0.00107059
0.00105064
0.00113645
0.00125643
0.00141145
0.00165515
0.00179799
0.00182637
0.00183024
0.00182709
0.00182116
0.00182701
0.00182563
0.00182372
0.00183287
0.00184405
0.00188461
0.00196747
0.00196984
0.0017939
0.00133011
0.000964242
0.00101609
0.00107827
0.00106697
0.001145
0.00122286
0.00142093
0.00168037
0.00178122
0.00182622
0.00182968
0.00182591
0.00182095
0.00182965
0.00182264
0.00182388
0.00182889
0.00184346
0.00188235
0.0019643
0.00196857
0.00180202
0.00135761
0.000981471
0.00104119
0.00108673
0.00109194
0.00111534
0.00123407
0.00139971
0.00162536
0.00178577
0.00182775
0.00182771
0.00182444
0.0018244
0.00183116
0.00182399
0.00182459
0.00182954
0.00184278
0.00188006
0.00196178
0.00196812
0.00181212
0.00139175
0.000995098
0.0010396
0.00107898
0.00109397
0.00113313
0.00129996
0.00143476
0.00164853
0.001767
0.00183332
0.00183048
0.00181822
0.00182592
0.00182903
0.00182385
0.00182661
0.00183424
0.00184249
0.00187797
0.00195969
0.00196956
0.00182554
0.00143253
0.00101997
0.00104522
0.00108299
0.00110758
0.00117554
0.00133102
0.00149354
0.00170754
0.00177909
0.00183165
0.00182045
0.00181794
0.00182934
0.0018272
0.00182529
0.00182278
0.00183791
0.00184162
0.00187585
0.00195767
0.00197161
0.00184092
0.0014784
0.00104871
0.00105492
0.00110421
0.0011186
0.00116232
0.00130854
0.00151316
0.00170577
0.00175396
0.00182649
0.00181712
0.00181689
0.00182793
0.00182535
0.00182573
0.00181431
0.00183594
0.00184018
0.00187371
0.00195592
0.00197416
0.00185814
0.00152709
0.00108418
0.0010775
0.00110244
0.00121776
0.0011452
0.00133731
0.00144292
0.00167309
0.00172744
0.00182033
0.0018124
0.00181837
0.00182089
0.00182034
0.00182537
0.00181272
0.00183121
0.00183992
0.00187221
0.00195363
0.00197696
0.00187609
0.00157604
0.00113047
0.00108073
0.00108312
0.0012035
0.00122708
0.00127062
0.00148257
0.00158784
0.00164941
0.00182149
0.00181954
0.00182682
0.00181768
0.00181251
0.00182494
0.00182039
0.00182881
0.00183956
0.00187035
0.00195121
0.00197943
0.00189409
0.00162661
0.00118625
0.0010835
0.00113411
0.00134332
0.00130975
0.00129665
0.00140672
0.00150374
0.0017534
0.00182997
0.00182565
0.00181918
0.00181858
0.00181367
0.00182174
0.00182336
0.00183005
0.00184054
0.00186881
0.00194774
0.00198235
0.00191171
0.00167468
0.00123994
0.00111171
0.0011342
0.00141286
0.00138657
0.00143792
0.00144885
0.00164882
0.00203776
0.00182885
0.00183222
0.00180191
0.00181909
0.0018206
0.0018234
0.00182409
0.00182932
0.00184144
0.0018675
0.00194374
0.00198454
0.00192829
0.00172173
0.00129844
0.00116582
0.00130368
0.00163232
0.00151645
0.00149356
0.00147961
0.00171591
0.00219987
0.00183302
0.00184204
0.00180211
0.00181784
0.00182145
0.00182385
0.00182454
0.0018305
0.00184096
0.00186531
0.00193864
0.00198704
0.00194404
0.00176649
0.00137099
0.00116864
0.00149324
0.00176874
0.00184874
0.00188181
0.00170055
0.00181909
0.00248746
0.00181766
0.00183688
0.00181269
0.00181404
0.00182013
0.00182324
0.00182002
0.00182732
0.0018385
0.00186274
0.00193332
0.00198717
0.00195752
0.00180827
0.00144947
0.00112273
0.0016009
0.00202325
0.00195087
0.00198641
0.00197734
0.00227929
0.00292453
0.00181468
0.00182275
0.00181636
0.00181084
0.00181815
0.00182129
0.00181711
0.00182324
0.00183571
0.00185987
0.00192663
0.00198675
0.00196915
0.0018472
0.00152621
0.00119009
0.00195504
0.00221821
0.00224623
0.00237052
0.00255278
0.0029497
0.00335192
0.00181444
0.00181568
0.00181754
0.00181245
0.00181656
0.00181607
0.00181502
0.00182098
0.00183371
0.0018569
0.00191967
0.00198293
0.00197826
0.00188313
0.00159641
0.00127875
0.00204654
0.00268413
0.00272491
0.00276323
0.00316406
0.00360771
0.00352465
0.0018163
0.00181109
0.00181905
0.00181558
0.00181531
0.00181222
0.00181306
0.00181977
0.00183222
0.0018538
0.00191194
0.0019773
0.00198444
0.00191314
0.00166138
0.00136885
0.00233234
0.0030512
0.00324342
0.00318874
0.00369951
0.00428141
0.00358808
0.00181504
0.00180764
0.00182092
0.00181727
0.0018141
0.0018091
0.00181084
0.0018186
0.00183048
0.00185032
0.00190404
0.00196977
0.00198648
0.00194473
0.00172555
0.00138487
0.0021041
0.0037124
0.00354495
0.00388555
0.00428684
0.00480413
0.00387486
0.00180803
0.00180464
0.00182139
0.00181651
0.00181254
0.00180632
0.00180835
0.00181674
0.00182788
0.00184601
0.00189558
0.00196145
0.00198508
0.00197822
0.00176026
0.00144363
0.00242983
0.00390601
0.00453472
0.00459656
0.00516216