/*--------------------------------*- C++ -*----------------------------------*\
  =========                 |
  \\      /  F ield         | OpenFOAM: The Open Source CFD Toolbox
   \\    /   O peration     | Website:  https://openfoam.org
    \\  /    A nd           | Version:  7
     \\/     M anipulation  |
\*---------------------------------------------------------------------------*/
FoamFile
{
    version     2.0;
    format      ascii;
    class       volScalarField;
    location    "81";
    object      omega;
}
// * * * * * * * * * * * * * * * * * * * * * * * * * * * * * * * * * * * * * //

dimensions      [0 0 -1 0 0 0 0];

internalField   nonuniform List<scalar> 
12842
(
3.14362
2.83663
2.65016
2.53321
2.43811
2.37493
2.32125
2.29192
2.26455
2.25323
2.24176
2.24332
2.25046
2.27051
2.30489
2.3765
2.47853
2.59884
2.76776
2.91256
3.0776
3.26656
3.37678
3.12436
2.81941
2.61843
2.502
2.4233
2.36975
2.31906
2.29018
2.26287
2.25127
2.24061
2.24247
2.25091
2.27134
2.30869
2.37649
2.48602
2.60714
2.77883
2.91839
3.11087
3.2803
3.38218
3.10347
2.78718
2.60045
2.48575
2.40307
2.3511
2.30592
2.28018
2.25519
2.24478
2.23731
2.24093
2.25191
2.2755
2.31767
2.38794
2.50342
2.62614
2.80705
2.93767
3.11172
3.31557
3.42887
3.07508
2.75531
2.56054
2.45231
2.38164
2.3401
2.29938
2.27547
2.25176
2.24199
2.23586
2.24008
2.25306
2.27979
2.3269
2.40331
2.52282
2.65265
2.84021
2.98342
3.14273
3.32297
3.464
3.04738
2.71934
2.5414
2.43261
2.36326
2.32139
2.28464
2.26439
2.24368
2.23591
2.23296
2.2389
2.2545
2.28498
2.33679
2.41893
2.55193
2.67616
2.86758
3.02472
3.18338
3.32552
3.48959
3.01629
2.68397
2.50413
2.40565
2.34342
2.30883
2.27759
2.25924
2.2401
2.23326
2.23167
2.23838
2.25582
2.28954
2.3471
2.4374
2.57215
2.71304
2.89106
3.05211
3.2454
3.36238
3.5235
2.98715
2.65179
2.48454
2.38598
2.32791
2.29458
2.26514
2.24976
2.23294
2.22812
2.22918
2.23751
2.25791
2.29559
2.35715
2.45241
2.605
2.73777
2.942
3.08724
3.28211
3.40421
3.57552
2.95675
2.61991
2.45432
2.36528
2.31188
2.28271
2.25804
2.24401
2.22987
2.22597
2.22787
2.23727
2.25882
2.29937
2.36748
2.47261
2.62348
2.77714
2.963
3.12952
3.34873
3.45814
3.62487
2.92809
2.59387
2.43736
2.34874
2.30008
2.27289
2.25005
2.23786
2.22472
2.22247
2.22598
2.2377
2.26181
2.30527
2.37572
2.48308
2.65166
2.79352
3.00946
3.15348
3.38736
3.51357
3.67625
2.89342
2.56201
2.41246
2.3327
2.28873
2.26396
2.24419
2.23334
2.22269
2.2211
2.22507
2.23788
2.26395
2.31092
2.38705
2.50298
2.6701
2.82825
3.02685
3.19809
3.42705
3.57609
3.73091
2.86259
2.53821
2.39689
2.31921
2.27926
2.25653
2.23878
2.22886
2.21913
2.21861
2.22356
2.23845
2.26626
2.31576
2.39652
2.51418
2.69277
2.84392
3.07376
3.22471
3.4677
3.6241
3.7681
2.82671
2.51024
2.37619
2.30521
2.26989
2.24891
2.23358
2.22518
2.21749
2.21734
2.22281
2.23934
2.26901
2.32281
2.4071
2.53653
2.71986
2.88455
3.09647
3.28324
3.52785
3.71812
3.8653
2.7972
2.48958
2.36288
2.29416
2.26151
2.24225
2.22921
2.22144
2.21463
2.2153
2.22157
2.23965
2.27086
2.32805
2.4198
2.55003
2.73711
2.90262
3.15066
3.32139
3.57287
3.76618
3.91593
2.76279
2.46588
2.3458
2.28199
2.25355
2.23565
2.225
2.21837
2.21319
2.21406
2.22096
2.24007
2.2738
2.33513
2.431
2.57613
2.77026
2.94618
3.18223
3.38669
3.66468
3.88524
4.05819
2.73535
2.44852
2.33484
2.27277
2.24587
2.22956
2.22129
2.21545
2.21094
2.2123
2.2199
2.24058
2.27605
2.34106
2.44428
2.59009
2.78579
2.97051
3.24022
3.44947
3.72327
3.94673
4.13365
2.70422
2.42878
2.32089
2.26254
2.23896
2.22355
2.21766
2.21242
2.20943
2.21101
2.21919
2.24132
2.2794
2.34903
2.46166
2.61822
2.82152
3.01525
3.2879
3.51281
3.84278
4.09798
4.33039
2.68
2.41449
2.31155
2.25464
2.23167
2.21784
2.21436
2.21001
2.20779
2.20933
2.21792
2.24333
2.28214
2.35656
2.47771
2.6337
2.83895
3.0512
3.34635
3.60661
3.9168
4.17443
4.42814
2.65589
2.39809
2.3001
2.24623
2.22562
2.21248
2.2107
2.20696
2.20602
2.20796
2.21778
2.2451
2.28589
2.36651
2.49814
2.66149
2.87977
3.09796
3.41152
3.66842
4.05796
4.36156
4.67854
2.63719
2.38634
2.29173
2.23952
2.21864
2.20709
2.20757
2.20437
2.20466
2.20621
2.21757
2.24777
2.28856
2.37587
2.51919
2.68187
2.90049
3.14453
3.47427
3.79287
4.16015
4.46793
4.82093
2.61844
2.3727
2.28206
2.23265
2.21334
2.20261
2.2037
2.20169
2.20269
2.20471
2.21721
2.25112
2.29323
2.38942
2.53927
2.70699
2.94947
3.20393
3.55569
3.85919
4.30651
4.69916
5.16117
2.60387
2.3628
2.27435
2.22694
2.20689
2.19771
2.2005
2.19868
2.20113
2.2029
2.21729
2.25288
2.29607
2.39839
2.5637
2.73719
2.97621
3.25077
3.62481
4.02482
4.50508
4.92603
5.45428
2.58907
2.35144
2.26594
2.22121
2.20216
2.194
2.19646
2.1963
2.19889
2.20124
2.21731
2.25659
2.30253
2.41749
2.59539
2.76631
3.04231
3.32699
3.71826
4.11379
4.63746
5.15999
5.83781
2.57758
2.34274
2.25871
2.21607
2.19654
2.18961
2.19328
2.19326
2.19706
2.19947
2.21665
2.25895
2.30634
2.42755
2.63522
2.80091
3.07871
3.38901
3.78582
4.30549
4.98064
5.6934
6.51207
2.56725
2.33542
2.25302
2.21264
2.19316
2.18721
2.18983
2.19127
2.19489
2.19803
2.21721
2.26367
2.31217
2.44737
2.68606
2.85447
3.17457
3.49987
3.95383
4.49963
5.25466
6.11716
7.11349
2.56098
2.32957
2.2488
2.21029
2.1909
2.18541
2.18787
2.1897
2.19337
2.19677
2.21759
2.26911
2.31859
2.47208
2.73617
2.89841
3.25311
3.65515
4.13875
4.81699
5.90517
7.11668
8.33234
2.55248
2.32509
2.24528
2.20801
2.18935
2.18421
2.1857
2.18854
2.19162
2.19573
2.21831
2.27564
2.32684
2.4968
2.78813
2.98071
3.39283
3.87119
4.54751
5.52453
6.67455
8.36906
10.6958
2.54696
2.31929
2.24121
2.20567
2.18753
2.1826
2.18397
2.18717
2.18999
2.19475
2.21897
2.27703
2.3386
2.51579
2.8041
3.05565
3.57492
4.216
5.09651
6.42514
8.56734
11.1841
13.01
2.53865
2.31549
2.23798
2.20313
2.18635
2.18165
2.18216
2.1861
2.18831
2.19376
2.2196
2.27781
2.3496
2.54181
2.80148
3.17609
3.77811
4.6724
6.10214
8.27846
10.7604
13.8224
18.5541
2.53349
2.3097
2.23403
2.20086
2.18479
2.18009
2.18086
2.18476
2.18677
2.19282
2.22052
2.27688
2.37221
2.57506
2.82234
3.29521
4.09064
5.24889
6.96897
9.43803
13.3033
21.6934
45.2628
2.5261
2.30641
2.23083
2.19807
2.18376
2.17923
2.17959
2.18376
2.18532
2.19155
2.22086
2.27921
2.38304
2.61595
2.88047
3.46543
4.38198
5.92377
8.4687
12.8952
24.9134
59.937
126.617
2.52078
2.30084
2.22693
2.19578
2.1822
2.17788
2.17872
2.18213
2.18361
2.19071
2.22345
2.28179
2.39842
2.62795
2.94541
3.61289
4.75707
6.6136
9.79025
16.6441
35.6395
88.5293
132.513
2.51486
2.29778
2.22359
2.19295
2.18122
2.17707
2.17761
2.18102
2.18201
2.19068
2.22387
2.28562
2.40866
2.6341
3.04699
3.8363
5.13981
7.45241
11.8857
23.0523
51.7186
79.6342
126.871
2.50928
2.29272
2.2196
2.19061
2.17969
2.17575
2.17642
2.17851
2.18033
2.19045
2.22386
2.29037
2.4165
2.66359
3.14639
4.00182
5.49122
8.1177
13.5112
25.3221
46.0891
68.0799
110.714
2.50459
2.2896
2.21616
2.18788
2.17879
2.17471
2.17483
2.17709
2.17898
2.19061
2.22478
2.30303
2.44938
2.72827
3.26093
4.22932
5.89337
8.97414
15.7552
28.76
38.4643
55.4225
86.6404
2.49917
2.28522
2.21223
2.18577
2.1771
2.17257
2.17272
2.17519
2.17794
2.19107
2.23239
2.32284
2.48257
2.79844
3.39734
4.4303
6.21187
9.44553
16.1748
26.8055
33.6063
53.1334
78.569
2.49515
2.28194
2.20881
2.18318
2.1759
2.17131
2.17088
2.17365
2.17834
2.1973
2.25202
2.36286
2.55022
2.88625
3.50098
4.60333
6.50003
10.0067
17.826
23.5236
34.8701
52.0133
75.7579
2.49011
2.27803
2.20497
2.18128
2.17354
2.1685
2.16852
2.17345
2.18082
2.20761
2.27523
2.40048
2.60087
2.97242
3.66791
4.83168
6.76812
10.1477
16.4152
23.4786
33.9076
45.8687
63.0447
2.48652
2.27498
2.20173
2.17804
2.17129
2.16707
2.16823
2.1761
2.19114
2.23047
2.31371
2.46285
2.69073
3.08424
3.76613
4.95495
6.8995
9.9648
16.5695
22.7618
31.7921
42.5698
64.8418
2.48149
2.27122
2.1979
2.17605
2.16866
2.16465
2.16862
2.18321
2.20801
2.25576
2.35013
2.51247
2.74721
3.16421
3.92356
5.16953
7.11943
10.7685
15.208
20.6162
28.6341
44.949
64.7332
2.4784
2.26839
2.19504
2.17193
2.16642
2.1649
2.17447
2.19905
2.23444
2.2937
2.40469
2.59275
2.85436
3.2999
4.05149
5.27622
7.23287
10.6855
13.7129
19.6671
30.9637
45.9047
63.1096
2.47303
2.26464
2.1906
2.16912
2.16347
2.16396
2.18591
2.22085
2.26714
2.33336
2.45273
2.6506
2.91239
3.3703
4.16506
5.47449
7.35214
10.1595
14.0387
19.7727
30.1437
45.5381
60.653
2.47022
2.26155
2.18814
2.16635
2.16314
2.16963
2.20567
2.25108
2.30827
2.38387
2.51858
2.74079
3.02591
3.51413
4.33236
5.57491
7.43326
9.9829
13.882
18.6038
30.799
46.0401
62.4413
2.46481
2.25723
2.18295
2.16299
2.16334
2.17951
2.23105
2.2871
2.35417
2.43488
2.57539
2.80326
3.08574
3.5859
4.42246
5.77475
7.60287
9.91209
13.2771
17.1335
28.0052
45.9897
71.7265
2.46113
2.25345
2.18029
2.16199
2.16913
2.19933
2.26424
2.32968
2.40627
2.49417
2.64765
2.89661
3.19873
3.72977
4.60281
5.90217
7.71824
9.98291
13.0475
18.2785
28.6122
45.6643
62.2224
2.45615
2.24845
2.17611
2.16203
2.18004
2.22332
2.30184
2.37646
2.46065
2.55219
2.7087
2.95753
3.2571
3.80214
4.70223
6.09166
7.96413
10.0233
12.9755
18.0301
24.4379
39.2671
70.9528
2.4506
2.24385
2.17454
2.16605
2.19896
2.25591
2.34559
2.42742
2.51879
2.61567
2.78271
3.05006
3.36889
3.95066
4.91022
6.32574
8.13343
10.1138
12.6461
17.7328
27.1149
45.1252
69.5313
2.44546
2.23866
2.17181
2.17418
2.22343
2.29243
2.39152
2.47995
2.57636
2.6761
2.84347
3.10486
3.42546
4.02819
5.02169
6.47714
8.36047
10.1995
12.5844
17.1051
25.371
38.9551
60.0276
2.43877
2.23406
2.17306
2.18928
2.25481
2.33472
2.44109
2.53415
2.63518
2.7387
2.9141
3.19368
3.53496
4.18926
5.26618
6.8058
8.53344
10.431
12.8797
18.2703
28.3295
41.6612
59.0669
2.43177
2.22916
2.17476
2.2085
2.2917
2.38071
2.49193
2.58873
2.69267
2.79864
2.97259
3.24205
3.59224
4.27574
5.40499
6.98941
8.91948
11.1177
15.2412
25.4192
37.7138
57.3941
75.6232
2.42414
2.22791
2.18376
2.23632
2.3361
2.43208
2.54627
2.64519
2.75157
2.85991
3.03791
3.3223
3.69667
4.44625
5.70143
7.39295
9.23596
12.5019
20.2728
35.9656
48.8489
71.8425
92.4723
2.4171
2.22789
2.19894
2.2688
2.38433
2.48493
2.5992
2.6988
2.80615
2.91592
3.09106
3.36634
3.7535
4.53735
5.85549
7.65069
10.7641
16.2695
30.5759
49.4935
69.8706
93.5426
108.105
2.41095
2.23117
2.22216
2.30762
2.43632
2.5385
2.65096
2.74987
2.85773
2.96866
3.14387
3.42734
3.85093
4.72002
6.22742
8.45547
12.4546
22.714
42.265
62.9342
81.0255
106.042
118.61
2.40642
2.23874
2.25003
2.3495
2.48896
2.59093
2.69978
2.797
2.90451
3.01587
3.18737
3.46564
3.9069
4.83398
6.45929
9.38681
16.537
32.5644
56.5971
77.2448
100.038
116.089
125.079
2.4039
2.25461
2.28424
2.39512
2.54294
2.64233
2.74598
2.84066
2.94748
3.05923
3.22879
3.51241
3.99694
5.05033
7.03359
11.3688
22.1445
43.5115
67.5338
87.6784
108.541
123.641
129.837
2.40314
2.27527
2.32187
2.44207
2.59512
2.69087
2.78859
2.88012
2.98565
3.09724
3.26314
3.54555
4.05882
5.22952
7.59089
14.1465
29.168
53.4588
78.7097
99.0752
117.845
127.483
134.877
2.40346
2.3044
2.36422
2.49092
2.64713
2.73793
2.82864
2.91664
3.0203
3.13175
3.29527
3.58214
4.14789
5.51849
8.83837
18.1195
37.2749
63.6232
86.06
106.711
122.984
132.101
143.175
2.40828
2.33736
2.407
2.5371
2.69298
2.77843
2.86252
2.94679
3.04806
3.15891
3.31983
3.60972
4.22501
5.83652
10.2525
21.9814
43.6199
68.0976
88.0243
108.553
125.19
138.832
151.797
2.4197
2.37401
2.4497
2.58122
2.73569
2.81585
2.89359
2.97428
3.07276
3.18299
3.34186
3.63718
4.31303
6.26311
11.9034
25.6174
48.6846
70.8024
88.9592
109.328
125.147
147.355
160.965
2.43651
2.4137
2.49424
2.62512
2.77581
2.85064
2.9225
2.99964
3.09503
3.20447
3.36185
3.66488
4.42064
6.77566
13.7248
29.4951
51.3604
71.1141
89.8482
109.521
125.721
151.19
165.682
2.45848
2.45642
2.53863
2.66749
2.81322
2.8829
2.94928
3.02287
3.11476
3.2234
3.37986
3.69323
4.54316
7.38688
15.5323
32.9527
53.6489
71.4877
89.5213
109.929
125.779
151.498
167.74
2.48443
2.50053
2.58405
2.70875
2.84749
2.91219
2.97397
3.04446
3.13267
3.24024
3.39627
3.72221
4.6841
8.02228
17.4654
36.0534
55.1542
71.8683
89.8971
109.158
125.958
151.75
168.766
2.5137
2.54546
2.62784
2.7479
2.87874
2.9392
2.99657
3.06392
3.1484
3.25499
3.41128
3.75227
4.83861
8.74811
19.2853
38.4613
55.2421
72.3994
88.679
108.594
125.646
153.402
168.324
2.54502
2.59004
2.67162
2.78523
2.90666
2.96295
3.01723
3.0822
3.16284
3.26811
3.42508
3.78289
5.00321
9.42983
21.1
40.2333
55.4192
71.8346
85.7453
104.874
125.458
152.2
168.282
2.57751
2.63359
2.71247
2.81997
2.93167
2.98489
3.03563
3.09825
3.17546
3.27969
3.43797
3.81442
5.1774
10.2114
22.9809
41.3692
55.6251
69.8924
81.8374
99.5359
122.784
152.653
167.619
2.60999
2.67501
2.75218
2.85231
2.95342
3.00358
3.05243
3.11335
3.18704
3.2898
3.44999
3.84651
5.35868
10.933
24.6401
41.8932
55.9166
67.4904
77.5868
93.4278
121.479
150.968
163.086
2.64187
2.71433
2.78793
2.88204
2.97294
3.02082
3.06693
3.12628
3.19726
3.29905
3.46137
3.87966
5.55329
11.754
26.392
42.1433
55.8296
64.8135
73.2477
87.1438
115.731
148.062
152.806
2.6724
2.75012
2.82194
2.90869
2.98933
3.03528
3.08002
3.13833
3.20647
3.3068
3.47216
3.91441
5.75482
12.4933
27.6573
42.1565
55.1114
62.2447
69.102
80.7965
107.817
139.026
139.113
2.70084
2.78342
2.85126
2.93334
3.00431
3.0485
3.09136
3.14835
3.21464
3.3142
3.48249
3.95128
5.97253
13.2788
28.552
42.4603
54.0321
59.8198
65.3464
74.9083
98.7329
126.332
123.224
2.72797
2.81298
2.87911
2.95437
3.01669
3.05961
3.1012
3.15775
3.22205
3.32032
3.49253
3.9894
6.18634
13.9037
28.8817
42.3825
52.8236
57.5833
61.8679
69.3653
89.4454
111.967
106.905
2.75196
2.83953
2.90209
2.9743
3.02799
3.06975
3.11024
3.16514
3.22853
3.32614
3.50253
4.02899
6.39144
14.4121
29.0442
42.3971
51.4431
55.5002
58.7996
64.5128
81.1515
97.5623
91.4982
2.77502
2.86373
2.92443
2.99033
3.03778
3.07858
3.11762
3.1724
3.2343
3.33117
3.51251
4.06708
6.57408
14.6784
29.2555
42.4284
49.9194
53.3932
55.96
60.4938
74.5211
84.0264
78.0219
2.79547
2.88411
2.94218
3.00657
3.04635
3.08646
3.12518
3.17778
3.24005
3.33594
3.52254
4.10258
6.71847
14.8379
29.216
42.4845
48.1604
51.2332
53.284
56.9612
69.2904
72.0916
66.7639
2.81425
2.90419
2.96058
3.01826
3.05477
3.09423
3.13106
3.18325
3.24438
3.34065
3.53223
4.13329
6.81649
14.8345
29.3873
41.9131
46.1378
48.8404
50.5638
53.9024
64.2133
63.442
58.1345
2.83244
2.92006
2.9744
3.03209
3.06168
3.1007
3.13773
3.18734
3.24824
3.3451
3.54117
4.1569
6.87831
14.8957
29.4136
40.6998
43.8277
46.2363
47.752
51.1465
59.5057
57.0095
51.749
2.848
2.93725
2.99064
3.04083
3.06965
3.10797
3.14314
3.19163
3.25216
3.34949
3.54902
4.17282
6.89164
14.8675
29.1809
38.9479
41.2503
43.3849
44.72
48.331
55.0352
52.0039
47.2475
2.86422
2.95047
3.00177
3.05253
3.07608
3.11441
3.1493
3.19459
3.25248
3.35339
3.55532
4.18245
6.90011
14.8005
28.3646
36.7685
38.4658
40.3118
41.52
45.3857
50.8859
48.0265
43.7644
2.87902
2.96562
3.01688
3.06057
3.08396
3.12081
3.15455
3.19842
3.25306
3.35587
3.56004
4.18801
6.8881
14.5152
27.126
34.2788
35.5364
37.0808
38.254
42.167
47.1319
44.7246
41.6561
2.89248
2.97784
3.0268
3.07014
3.09045
3.12823
3.16068
3.20088
3.25444
3.35733
3.56313
4.18637
6.81138
13.9729
25.6225
31.6118
32.5653
33.7951
35.0108
39.2504
43.8747
41.9722
40.3615
2.90825
2.99052
3.03948
3.07761
3.09847
3.13343
3.16581
3.20367
3.25566
3.35784
3.56499
4.17748
6.67174
13.3046
23.9667
28.8926
29.6622
30.6999
32.0467
36.3937
41.3443
40.0924
39.2437
2.91948
3.00355
3.05076
3.08725
3.1051
3.14214
3.17221
3.20871
3.25553
3.35791
3.5656
4.15563
6.49332
12.4951
22.3043
26.2514
26.8983
27.8301
29.3706
34.2704
38.853
38.6913
39.0761
2.93498
3.01489
3.05976
3.094
3.11371
3.14689
3.17884
3.20913
3.25631
3.35843
3.5651
4.12663
6.26958
11.6992
20.7008
23.7833
24.3535
25.293
27.2176
32.4115
37.1621
37.6518
38.8782
2.9489
3.03108
3.072
3.10491
3.12335
3.15769
3.18687
3.20991
3.25565
3.35805
3.56257
4.08911
6.04023
10.8792
19.2354
21.5465
22.0917
23.1037
25.3573
31.1002
35.8725
36.9369
38.6384
2.96489
3.04536
3.0852
3.11495
3.1333
3.165
3.19256
3.21086
3.25608
3.35816
3.55805
4.04727
5.7954
10.1176
17.9508
19.594
20.1311
21.3181
24.1276
30.1885
34.9811
36.6344
38.3937
2.98473
3.06248
3.09379
3.12615
3.14104
3.16901
3.19352
3.21153
3.25738
3.3581
3.55187
4.00349
5.55055
9.42688
16.8382
17.9115
18.5043
19.9353
23.2954
29.3613
34.2491
36.3428
38.5506
2.98956
3.06293
3.10127
3.12654
3.14799
3.17303
3.19432
3.21192
3.25633
3.35839
3.54445
3.95722
5.31832
8.84053
15.9256
16.5371
17.1691
18.911
22.6273
28.8683
33.4913
36.0397
38.4295
2.99426
3.06526
3.10609
3.12882
3.14902
3.17291
3.19464
3.21497
3.25614
3.35777
3.53639
3.9134
5.10569
8.35729
15.1591
15.4211
16.1557
18.1317
22.4102
28.5392
33.0794
35.882
38.4902
3.00642
3.06611
3.10772
3.13256
3.14845
3.17359
3.19544
3.21431
3.2561
3.35797
3.52792
3.86776
4.92132
7.99488
14.5247
14.538
15.3878
17.6681
22.0569
28.3375
32.6034
35.705
38.3604
3.00667
3.06667
3.10678
3.1361
3.14829
3.17575
3.19536
3.21435
3.25627
3.35768
3.51952
3.82815
4.78078
7.70842
13.9895
13.8697
14.8526
17.2874
22.0858
28.2098
32.3339
35.4453
38.64
3.00838
3.06691
3.10755
3.13915
3.14918
3.17761
3.19573
3.21696
3.25592
3.35741
3.51174
3.79291
4.66342
7.49604
13.5385
13.3724
14.4753
17.1123
22.042
27.91
32.0329
35.2357
38.9996
3.01707
3.07126
3.10983
3.13673
3.14916
3.17703
3.19569
3.21555
3.2563
3.35705
3.50393
3.77317
4.59638
7.32351
13.133
13.0195
14.2055
16.8939
21.9701
27.6984
31.8537
34.7666
39.393
3.01532
3.068
3.11164
3.13879
3.14955
3.17879
3.19583
3.21657
3.25465
3.35616
3.49818
3.75846
4.55797
7.1864
12.7605
12.7592
14.0426
16.793
22.1174
27.667
31.5069
34.9438
39.0425
3.01536
3.06772
3.10776
3.13525
3.15131
3.17597
3.19574
3.2151
3.25383
3.35542
3.49126
3.74583
4.53805
7.07867
12.3984
12.5808
13.934
16.7353
22.0963
27.8171
31.3477
34.629
39.0162
3.01572
3.06863
3.10743
3.1353
3.14812
3.17631
3.19587
3.21541
3.25337
3.35339
3.48795
3.74522
4.53179
7.00673
12.1077
12.446
13.8553
16.6968
22.0596
27.4869
31.3376
34.5532
39.9164
3.01408
3.0683
3.10849
3.13771
3.14794
3.17561
3.19496
3.21571
3.25219
3.35197
3.48177
3.74356
4.50996
6.95571
11.8242
12.369
13.8237
16.5959
22.037
27.4517
31.1593
34.6078
39.5683
3.01413
3.06967
3.10374
3.13344
3.14903
3.17524
3.19459
3.21272
3.25227
3.34949
3.48083
3.74141
4.50699
6.93392
11.6256
12.2864
13.7727
16.5438
22.0214
27.3977
30.9552
34.1449
39.4502
3.01249
3.06703
3.1031
3.13292
3.14502
3.17594
3.19615
3.21244
3.25292
3.34943
3.48088
3.74204
4.51759
7.00434
11.6366
12.2796
13.8232
16.7883
22.6295
27.7819
31.2438
34.3022
39.9954
3.01193
3.06811
3.10374
3.13452
3.14401
3.17116
3.19314
3.21315
3.25159
3.3442
3.47358
3.7246
4.4597
6.81501
11.3523
12.1894
13.693
16.6325
22.2537
27.6735
30.9808
34.5718
39.7867
3.01012
3.06149
3.09749
3.13297
3.14386
3.16977
3.19289
3.20978
3.25023
3.33864
3.4661
3.70686
4.40236
6.62169
11.0776
12.0632
13.5073
16.3066
21.9962
27.1796
30.5211
34.3647
38.3897
3.00866
3.0595
3.09641
3.13155
3.13706
3.1689
3.19044
3.20997
3.24727
3.33204
3.45761
3.68825
4.34388
6.41202
10.7778
11.9862
13.3781
16.0123
21.3305
26.7729
29.6214
33.7882
38.0398
3.00902
3.05879
3.09614
3.12639
3.13515
3.16852
3.18594
3.20657
3.24413
3.32552
3.44859
3.66888
4.28276
6.18419
10.4262
11.9118
13.1987
15.6206
20.6076
25.8322
28.7379
33.2515
38.3255
2.99803
3.04824
3.09846
3.12312
3.13681
3.16593
3.17679
3.19971
3.2392
3.31743
3.43799
3.64795
4.21772
5.94459
10.024
11.7793
13.1149
15.3221
19.8849
25.0056
28.0856
32.4748
37.7837
2.99496
3.05271
3.09409
3.1114
3.13371
3.15833
3.17351
3.18927
3.2344
3.30917
3.42682
3.6265
4.15049
5.70171
9.55514
11.6636
12.7709
14.9528
19.2011
23.9983
27.2676
31.7101
37.1174
2.99483
3.04087
3.08463
3.10763
3.12759
3.15113
3.17416
3.18551
3.2289
3.29907
3.41325
3.60306
4.08109
5.46537
9.06242
11.4563
12.7252
14.3881
18.4123
22.7141
26.6513
31.1788
36.488
2.99317
3.04311
3.07022
3.10964
3.12111
3.14193
3.17143
3.18516
3.22061
3.28727
3.39915
3.57963
4.01267
5.24191
8.52666
11.336
12.8605
14.3374
18.0748
21.7538
25.1657
30.0383
35.089
2.98111
3.03343
3.05016
3.10243
3.1138
3.13484
3.15781
3.17756
3.20934
3.27339
3.38197
3.5535
3.94427
5.03146
8.0354
10.8097
12.4052
14.229
17.6429
21.0622
24.1149
28.5642
34.0665
2.95549
3.01668
3.0431
3.09007
3.10389
3.12775
3.14398
3.16364
3.19546
3.25813
3.36418
3.5265
3.8786
4.83743
7.5245
10.3983
12.3296
14.282
17.183
20.3596
23.1444
27.6805
32.3388
2.94427
2.99331
3.04293
3.07338
3.09135
3.11162
3.12866
3.1493
3.17802
3.23884
3.34262
3.49502
3.81249
4.65749
7.04694
9.95649
12.0831
14.2848
16.8967
19.8135
22.3834
26.6622
30.9553
2.92021
2.96257
3.03256
3.05815
3.07824
3.09338
3.11262
3.13069
3.16169
3.22013
3.31996
3.46277
3.74923
4.494
6.55539
9.60831
11.951
14.4503
16.0027
19.1118
21.7503
25.7653
29.9206
2.92187
2.95111
3.01683
3.04253
3.06065
3.07256
3.101
3.11544
3.14385
3.19694
3.29163
3.42552
3.68417
4.34118
6.11557
9.31862
12.0387
14.2721
15.8587
18.1191
20.5873
24.4315
28.2674
2.90404
2.9521
2.99773
3.02371
3.04167
3.05483
3.08591
3.10157
3.1259
3.17324
3.26235
3.3882
3.62171
4.19912
5.73395
8.70591
11.8018
14.2788
15.8244
17.6257
19.9907
23.5911
25.931
2.87754
2.93505
2.97171
2.99586
3.01663
3.03767
3.06309
3.07868
3.1003
3.14291
3.2259
3.34431
3.55524
4.05984
5.39771
8.09736
11.3801
13.8559
14.9337
17.2481
19.3586
22.2455
25.351
2.84121
2.91205
2.94101
2.966
2.99059
3.01699
3.03847
3.05294
3.07293
3.11191
3.18849
3.30017
3.49163
3.93208
5.08953
7.56798
10.9892
13.4342
14.7708
16.8907
18.7103
21.26
25.9262
2.80346
2.8793
2.9011
2.93011
2.95707
2.98617
3.00533
3.01801
3.03647
3.07211
3.14134
3.24572
3.41953
3.8038
4.80792
6.89541
10.1502
12.7592
14.7824
16.3146
18.1343
20.5553
25.4229
2.77036
2.84471
2.8615
2.89543
2.92305
2.953
2.97143
2.98293
3.00038
3.03301
3.09464
3.19095
3.34868
3.68388
4.56555
6.40402
9.43512
11.8911
13.9262
15.7037
17.3249
18.9177
24.7374
2.73003
2.80042
2.81519
2.85231
2.87891
2.90798
2.92617
2.93693
2.9533
2.98255
3.03611
3.1223
3.26367
3.5551
4.31641
5.9758
8.75217
11.4858
13.8362
15.0148
16.5386
18.5179
24.4017
2.68832
2.75609
2.77147
2.80966
2.83491
2.8625
2.88097
2.89232
2.90785
2.93426
2.98071
3.05658
3.18201
3.43436
4.08947
5.47323
8.34659
10.2888
13.1958
14.2272
15.1646
18.7114
23.8557
2.63379
2.69901
2.71657
2.75354
2.77693
2.80219
2.82033
2.83224
2.84655
2.86971
2.90904
2.974
3.08293
3.29752
3.88396
4.8695
7.45646
9.96715
12.1326
12.7545
15.123
19.3555
22.0663
2.57971
2.64345
2.66379
2.69869
2.72087
2.74418
2.76217
2.77537
2.78913
2.80962
2.8435
2.89923
2.99336
3.17527
3.68147
4.68948
7.37947
10.3347
10.7622
12.4618
15.6455
18.3592
19.3576
2.51073
2.57069
2.59356
2.62524
2.64566
2.66648
2.68328
2.69655
2.70926
2.72651
2.75444
2.80083
2.88026
3.03306
3.44792
4.75354
6.99878
9.89278
10.384
12.8217
15.0423
16.3633
18.5267
2.44641
2.50356
2.52819
2.55713
2.57664
2.59591
2.61204
2.62587
2.63828
2.6537
2.67763
2.71679
2.78403
2.91268
3.25234
4.53379
6.48102
9.19872
10.5083
12.2616
13.5271
15.432
17.8729
2.36237
2.41383
2.43864
2.46381
2.48119
2.49796
2.51204
2.52458
2.53562
2.54795
2.56721
2.59873
2.65347
2.75935
3.03533
4.234
5.56764
8.48991
9.89481
11.1024
12.4345
14.6727
15.8435
2.28905
2.33768
2.36165
2.38423
2.40059
2.41618
2.42942
2.44158
2.45251
2.46348
2.48018
2.50664
2.5526
2.64093
2.86848
3.91522
5.37914
7.84009
9.01955
9.9339
11.8455
13.5123
12.3204
2.18767
2.2295
2.25029
2.26844
2.28177
2.29433
2.30478
2.31432
2.32322
2.33112
2.34352
2.36397
2.40039
2.47151
2.65721
3.57419
5.58577
7.14211
7.89962
9.06525
10.8772
11.1534
8.9358
2.1091
2.1492
2.16684
2.1826
2.1948
2.20627
2.21599
2.22467
2.23328
2.24078
2.25106
2.26849
2.2995
2.35989
2.52027
3.31659
5.37102
6.47705
7.00472
8.53302
9.73161
8.59627
6.72328
1.98831
2.01937
2.0305
2.04061
2.048
2.05521
2.06133
2.06667
2.0719
2.07672
2.08334
2.09571
2.11741
2.16744
2.29421
3.01318
4.91736
5.54555
6.15407
7.51235
7.79387
6.20061
5.11413
1.9113
1.941
1.94838
1.95643
1.96573
1.9727
1.9784
1.98326
1.98791
1.99219
1.99892
2.00645
2.03406
2.06763
2.20694
2.8903
4.63005
4.96651
5.8076
6.88798
6.35513
5.10925
4.42763
1.75561
1.76755
1.7652
1.76581
1.76301
1.76241
1.7624
1.76257
1.76301
1.76392
1.76515
1.77489
1.78035
1.82368
1.91495
2.4941
3.74705
3.99033
4.97343
5.29553
4.31789
3.44829
2.94693
3.09108
2.77225
2.58126
2.46687
2.38503
2.33582
2.29791
2.2742
2.24974
2.23894
2.23081
2.23334
2.24247
2.26335
2.30187
2.36675
2.47655
2.59409
2.77073
2.8984
3.07892
3.20619
3.3485
3.10054
2.78067
2.59301
2.47361
2.39655
2.34568
2.30519
2.2801
2.25406
2.24206
2.23278
2.23509
2.24419
2.26459
2.30187
2.36714
2.47498
2.59437
2.76698
2.9001
3.05556
3.20284
3.32739
3.1133
2.80401
2.60902
2.49379
2.40783
2.35381
2.30932
2.28405
2.25579
2.24472
2.23514
2.23734
2.24573
2.26535
2.30133
2.36558
2.47166
2.5874
2.75352
2.89236
3.03367
3.21348
3.30743
3.12714
2.81136
2.62211
2.50243
2.41542
2.36221
2.31767
2.28819
2.25923
2.24773
2.23706
2.23886
2.24668
2.26627
2.30106
2.369
2.47046
2.58949
2.75216
2.89528
3.04157
3.2122
3.31738
3.13486
2.83328
2.64535
2.52334
2.43063
2.3728
2.32101
2.29148
2.26285
2.25309
2.2403
2.24123
2.24762
2.26707
2.30098
2.37501
2.47064
2.58695
2.74387
2.88033
3.03081
3.20472
3.31893
3.14543
2.8491
2.65572
2.52816
2.43373
2.37481
2.32377
2.29545
2.26761
2.25583
2.24168
2.2423
2.24761
2.27056
2.30108
2.37664
2.46618
2.58291
2.74221
2.8862
3.04103
3.21496
3.32503
3.15089
2.85781
2.66263
2.53716
2.44243
2.38288
2.3305
2.30189
2.27246
2.25992
2.24487
2.24526
2.25073
2.27279
2.30384
2.37696
2.47078
2.58712
2.74942
2.8782
3.05182
3.20826
3.33591
3.14886
2.85583
2.66157
2.5332
2.43619
2.37656
2.32577
2.2995
2.27132
2.25929
2.24476
2.24537
2.25094
2.27258
2.30417
2.38419
2.47736
2.60036
2.76707
2.90546
3.07808
3.24982
3.35526
2.93698
2.60084
2.44238
2.35044
2.29778
2.26287
2.24527
2.22832
2.21913
2.21387
2.21178
2.21742
2.23366
2.26646
2.32366
2.42042
2.58074
2.80149
3.03337
3.32754
3.54977
3.86288
4.12651
2.94907
2.60765
2.44732
2.35443
2.30198
2.2663
2.24841
2.23102
2.22066
2.21553
2.2128
2.2183
2.23414
2.26598
2.32353
2.42055
2.57162
2.81421
3.00254
3.28864
3.49762
3.78113
4.04389
2.95056
2.6132
2.45484
2.35879
2.30598
2.26994
2.25127
2.23341
2.22255
2.21706
2.21392
2.2191
2.23438
2.26506
2.32256
2.41884
2.56101
2.81197
2.96661
3.23746
3.43846
3.69694
3.95995
2.9633
2.62133
2.45999
2.3631
2.31029
2.27389
2.25419
2.23601
2.22399
2.21853
2.21496
2.22002
2.23473
2.26479
2.3219
2.41768
2.55681
2.78268
2.94525
3.19746
3.39075
3.62169
3.87092
2.96623
2.62796
2.46864
2.36893
2.31498
2.2782
2.25727
2.23841
2.2259
2.21993
2.21601
2.22081
2.23504
2.26431
2.32056
2.40745
2.54854
2.75705
2.92797
3.1612
3.34881
3.5534
3.78895
2.98014
2.6379
2.47419
2.37358
2.31956
2.2823
2.26006
2.24111
2.22739
2.22156
2.21724
2.22187
2.23558
2.2641
2.31606
2.40094
2.54452
2.73932
2.92952
3.13099
3.309
3.4858
3.71182
2.98433
2.64592
2.48412
2.38129
2.32504
2.2874
2.26338
2.24354
2.22939
2.22291
2.2182
2.22261
2.23594
2.2634
2.31309
2.39487
2.54341
2.70967
2.92562
3.1007
3.27528
3.41877
3.6315
2.99966
2.6582
2.49034
2.38663
2.32997
2.29129
2.26625
2.24633
2.23099
2.22458
2.21952
2.22373
2.23627
2.26274
2.31054
2.38988
2.52721
2.67206
2.88866
3.07005
3.24451
3.37381
3.58005
3.00485
2.66753
2.50149
2.39602
2.33646
2.29701
2.26986
2.24919
2.23334
2.22639
2.22074
2.2247
2.23667
2.26279
2.30946
2.38615
2.5202
2.66071
2.85462
3.02844
3.20385
3.32312
3.50913
3.02173
2.68258
2.50918
2.40265
2.34151
2.30092
2.27293
2.25202
2.235
2.22782
2.22192
2.22568
2.2372
2.2629
2.30869
2.38324
2.51184
2.63986
2.83873
2.99621
3.18176
3.30328
3.48824
3.02755
2.69286
2.52116
2.413
2.34943
2.30688
2.27694
2.25574
2.23791
2.23021
2.22354
2.227
2.23772
2.26267
2.30758
2.37998
2.50377
2.63051
2.82492
2.95509
3.15913
3.28193
3.45127
3.04567
2.7109
2.5309
2.42158
2.35434
2.31136
2.28027
2.25856
2.2396
2.23152
2.22465
2.22796
2.23876
2.26261
2.30479
2.37531
2.49621
2.61959
2.80932
2.94034
3.14376
3.26747
3.4258
3.05187
2.7212
2.54363
2.43206
2.36404
2.3175
2.28475
2.26336
2.24294
2.23394
2.22637
2.2294
2.23947
2.26263
2.30433
2.3735
2.49077
2.61181
2.79754
2.92576
3.11565
3.24179
3.39597
3.07011
2.74245
2.55504
2.44292
2.36892
2.32276
2.2884
2.26605
2.24457
2.23535
2.22763
2.23054
2.24046
2.26283
2.30364
2.3732
2.48806
2.60708
2.78758
2.91373
3.10696
3.22912
3.37526
3.07669
2.75107
2.56851
2.45284
2.37962
2.3296
2.29356
2.2714
2.24796
2.23736
2.22906
2.23172
2.2413
2.26311
2.3032
2.36988
2.48241
2.60057
2.77931
2.90927
3.1076
3.22716
3.37055
2.85682
2.52179
2.38143
2.30296
2.25393
2.22951
2.21792
2.21746
2.24324
2.2996
2.37702
2.46802
2.58144
2.71739
2.91212
3.13266
3.42807
3.82911
4.21707
4.71543
5.19234
5.7843
6.25114
2.86013
2.52424
2.38598
2.30534
2.25618
2.22971
2.21411
2.20467
2.22118
2.26114
2.32729
2.40555
2.51469
2.64039
2.83186
3.05457
3.35966
3.77329
4.15715
4.6708
5.15618
5.71371
6.19315
2.86113
2.52566
2.38914
2.30655
2.25757
2.22922
2.20854
2.19555
2.19806
2.22842
2.28394
2.35683
2.45305
2.57952
2.76807
2.98863
3.28483
3.70401
4.08826
4.60493
5.08247
5.65173
6.12433
2.86459
2.52852
2.3924
2.30895
2.26057
2.23173
2.21042
2.19539
2.1943
2.20865
2.25181
2.30706
2.39721
2.51093
2.69165
2.91195
3.20947
3.63452
4.02048
4.5338
5.03354
5.58073
6.06446
2.86575
2.53039
2.39461
2.31004
2.2627
2.2329
2.21182
2.19646
2.18926
2.19373
2.22524
2.27598
2.35108
2.46042
2.63126
2.84474
3.13291
3.55971
3.93997
4.47368
4.96097
5.50078
5.99203
2.86952
2.53304
2.39621
2.31162
2.26428
2.23398
2.21288
2.19723
2.18807
2.18665
2.20776
2.24183
2.30803
2.40535
2.56477
2.77525
3.05877
3.48457
3.872
4.39109
4.9005
5.42688
5.92909
2.87076
2.53579
2.39815
2.3134
2.26659
2.23548
2.21495
2.1997
2.19008
2.18595
2.19756
2.22822
2.28194
2.36979
2.51498
2.7149
2.98795
3.40781
3.78791
4.32279
4.82403
5.33144
5.84858
2.8746
2.53819
2.399
2.31476
2.26759
2.2366
2.21671
2.20148
2.19133
2.18627
2.19293
2.21203
2.25555
2.33417
2.46677
2.65975
2.92422
3.3362
3.72045
4.24233
4.76006
5.25034
5.77623
2.87611
2.54144
2.40047
2.31656
2.26928
2.23757
2.21796
2.20403
2.19295
2.18769
2.19229
2.20902
2.24531
2.31333
2.43128
2.61219
2.86577
3.26346
3.64583
4.16562
4.67925
5.15064
5.6871
2.87972
2.54388
2.40172
2.31834
2.27054
2.23897
2.21996
2.20648
2.1954
2.18968
2.19362
2.20649
2.23617
2.29643
2.40411
2.57495
2.81914
3.20464
3.58342
4.08858
4.61302
5.0594
5.59872
2.88162
2.54719
2.40307
2.3198
2.27158
2.23994
2.22086
2.20807
2.19658
2.19119
2.19507
2.2068
2.2353
2.2876
2.3835
2.5431
2.77652
3.14273
3.52621
4.01356
4.53538
4.96712
5.50209
2.88517
2.5499
2.40473
2.32202
2.27314
2.2417
2.22246
2.21037
2.19878
2.19337
2.19692
2.20811
2.23418
2.28242
2.37244
2.52254
2.74773