/*--------------------------------*- C++ -*----------------------------------*\
  =========                 |
  \\      /  F ield         | OpenFOAM: The Open Source CFD Toolbox
   \\    /   O peration     | Website:  https://openfoam.org
    \\  /    A nd           | Version:  7
     \\/     M anipulation  |
\*---------------------------------------------------------------------------*/
FoamFile
{
    version     2.0;
    format      ascii;
    class       volScalarField;
    location    "81";
    object      p;
}
// * * * * * * * * * * * * * * * * * * * * * * * * * * * * * * * * * * * * * //

dimensions      [0 2 -2 0 0 0 0];

internalField   nonuniform List<scalar> 
12842
(
0.652702
0.681189
0.690004
0.707006
0.735771
0.771481
0.814323
0.876064
0.982711
1.17354
1.49664
2.00067
2.72446
3.68561
4.87167
6.2395
7.72287
9.24534
10.7339
12.1284
13.3887
14.4881
15.4286
0.468623
0.487503
0.464676
0.429395
0.381201
0.309222
0.207638
0.0840595
-0.0356944
-0.108215
-0.0767814
0.119895
0.535848
1.20357
2.12254
3.25783
4.54893
5.9238
7.31306
8.65696
9.91288
11.0422
12.0427
0.328355
0.328954
0.277455
0.194616
0.0764273
-0.0952285
-0.332438
-0.630811
-0.963455
-1.28259
-1.52315
-1.61218
-1.48216
-1.08883
-0.425434
0.476362
1.55827
2.75239
3.99591
5.23387
6.42662
7.52551
8.53214
0.219513
0.201493
0.121851
-0.00541956
-0.187434
-0.452428
-0.818385
-1.28312
-1.81773
-2.37041
-2.8681
-3.22693
-3.36717
-3.23533
-2.82138
-2.15796
-1.30371
-0.321662
0.735547
1.82159
2.90403
3.92502
4.89546
0.131708
0.101016
-0.00838973
-0.175611
-0.414277
-0.766248
-1.25322
-1.87479
-2.59977
-3.3737
-4.11614
-4.73343
-5.13468
-5.25907
-5.09591
-4.68204
-4.07759
-3.33933
-2.50596
-1.61198
-0.679215
0.225046
1.12607
0.0592858
0.0230315
-0.118314
-0.317984
-0.605052
-1.03655
-1.63379
-2.39923
-3.29966
-4.28044
-5.25461
-6.12064
-6.77744
-7.15792
-7.25216
-7.10304
-6.77248
-6.30951
-5.73538
-5.07047
-4.32315
-3.57046
-2.76861
-0.000935577
-0.0370591
-0.21127
-0.433203
-0.7604
-1.26274
-1.95622
-2.84946
-3.9073
-5.07807
-6.26935
-7.37443
-8.28271
-8.9211
-9.28052
-9.41092
-9.37646
-9.21792
-8.93646
-8.53726
-8.01159
-7.448
-6.77636
-0.0507004
-0.083474
-0.289164
-0.522402
-0.882383
-1.44523
-2.21796
-3.22076
-4.41599
-5.75907
-7.15328
-8.49006
-9.64939
-10.5511
-11.1848
-11.6073
-11.8855
-12.0537
-12.0923
-11.9926
-11.724
-11.3918
-10.8824
-0.096204
-0.119339
-0.350485
-0.582447
-0.966356
-1.57358
-2.40112
-3.48484
-4.78185
-6.25669
-7.80868
-9.33037
-10.6934
-11.8109
-12.6706
-13.3375
-13.884
-14.3426
-14.6735
-14.86
-14.8388
-14.753
-14.4067
-0.140969
-0.150362
-0.403407
-0.628291
-1.03453
-1.67703
-2.54672
-3.69513
-5.0724
-6.65113
-8.32662
-9.99283
-11.5144
-12.7986
-13.8328
-14.6913
-15.454
-16.1553
-16.7406
-17.1855
-17.3999
-17.5406
-17.3799
-0.178449
-0.175458
-0.445939
-0.662982
-1.09369
-1.76718
-2.67534
-3.88466
-5.3376
-7.01512
-8.80918
-10.616
-12.2937
-13.744
-14.9533
-16.0051
-16.9884
-17.9428
-18.8014
-19.5341
-20.0227
-20.4297
-20.5007
-0.209491
-0.195507
-0.476904
-0.687449
-1.14294
-1.84176
-2.78474
-4.05038
-5.57381
-7.34486
-9.25329
-11.1987
-13.0336
-14.6537
-16.0436
-17.2946
-18.5059
-19.7259
-20.8785
-21.93
-22.7323
-23.4487
-23.7898
-0.236336
-0.211692
-0.497552
-0.704902
-1.18358
-1.90223
-2.87718
-4.19468
-5.78394
-7.64393
-9.66371
-11.7475
-13.7427
-15.5388
-17.1164
-18.573
-20.0192
-21.5162
-22.9824
-24.3822
-25.5354
-26.6026
-27.2543
-0.260661
-0.224454
-0.509983
-0.718837
-1.21754
-1.95185
-2.95708
-4.32275
-5.97433
-7.92
-10.0495
-12.2729
-14.4325
-16.4112
-18.1829
-19.8494
-21.5338
-23.3144
-25.1085
-26.8808
-28.4172
-29.8735
-30.877
-0.283128
-0.233662
-0.51661
-0.731689
-1.24608
-1.99351
-3.02792
-4.43853
-6.14967
-8.17822
-10.4162
-12.7802
-15.1082
-17.2752
-19.246
-21.1239
-23.0457
-25.1113
-27.2421
-29.4054
-31.3519
-33.2338
-34.6275
-0.304184
-0.2392
-0.519893
-0.744661
-1.26981
-2.02912
-3.09157
-4.54401
-6.31217
-8.42084
-10.7659
-13.2712
-15.7709
-18.1314
-20.3049
-22.3934
-24.5478
-26.8925
-29.3595
-31.9196
-34.2946
-36.6232
-38.4501
-0.324182
-0.241087
-0.522183
-0.757827
-1.28898
-2.05975
-3.14857
-4.63953
-6.462
-8.64755
-11.0979
-13.7447
-16.419
-18.9782
-21.3575
-23.6532
-26.0293
-28.6374
-31.4278
-34.3755
-37.1873
-39.9653
-42.2623
-0.343184
-0.239613
-0.525241
-0.770536
-1.30386
-2.08596
-3.19892
-4.72503
-6.59893
-8.8579
-11.4117
-14.2002
-17.0528
-19.8167
-22.4049
-24.9016
-27.4814
-30.3251
-33.4111
-36.7189
-39.9586
-43.1732
-45.9578
-0.360399
-0.235596
-0.530012
-0.781884
-1.31488
-2.1081
-3.24256
-4.80044
-6.7228
-9.05147
-11.7067
-14.6376
-17.6729
-20.649
-23.4505
-26.1409
-28.9004
-31.9383
-35.2696
-38.8813
-42.503
-46.1134
-49.3628
-0.375142
-0.230115
-0.536589
-0.791106
-1.32268
-2.12645
-3.27975
-4.86631
-6.83435
-9.22934
-11.9848
-15.0593
-18.2836
-21.4815
-24.5021
-27.3774
-30.2838
-33.4567
-36.9534
-40.7749
-44.6845
-48.6076
-52.2467
-0.386774
-0.224369
-0.54447
-0.797856
-1.32801
-2.14125
-3.31077
-4.92297
-6.93397
-9.39183
-12.2462
-15.466
-18.8864
-22.3176
-25.5647
-28.6152
-31.6272
-34.8565
-38.4048
-42.2968
-46.3423
-50.4359
-54.3205
-0.395279
-0.219305
-0.552966
-0.801912
-1.33136
-2.15277
-3.33663
-4.9721
-7.02401
-9.54169
-12.4941
-15.8609
-19.4851
-23.1619
-26.6442
-29.8586
-32.9271
-36.1148
-39.5678
-43.3428
-47.3079
-51.353
-55.2468
-0.400277
-0.21559
-0.560866
-0.80386
-1.33327
-2.16079
-3.35673
-5.01269
-7.10305
-9.6775
-12.727
-16.2424
-20.0784
-24.0155
-27.7462
-31.1176
-34.1913
-37.2243
-40.4026
-43.8229
-47.4279
-51.124
-54.6958
-0.401723
-0.213965
-0.56713
-0.802618
-1.33411
-2.16756
-3.3764
-5.05134
-7.17685
-9.79965
-12.9353
-16.5856
-20.6234
-24.8204
-28.8082
-32.3395
-35.3867
-38.1692
-40.8984
-43.7184
-46.6614
-49.6607
-52.4874
-0.407751
-0.216736
-0.574532
-0.803265
-1.3383
-2.17777
-3.39952
-5.0912
-7.24684
-9.90914
-13.1189
-16.8893
-21.1175
-25.5724
-29.8282
-33.5311
-36.5344
-38.9788
-41.0818
-43.0457
-45.019
-46.9728
-48.6794
-0.409455
-0.219129
-0.579547
-0.804024
-1.34525
-2.19322
-3.43136
-5.14313
-7.33138
-10.0348
-13.3185
-17.2068
-21.6233
-26.3386
-30.8719
-34.7523
-37.6923
-39.7223
-41.0566
-41.9901
-42.8254
-43.578
-44.0129
-0.406635
-0.22037
-0.581412
-0.804536
-1.35357
-2.21117
-3.46648
-5.19837
-7.41736
-10.1593
-13.512
-17.5119
-22.1118
-27.0893
-31.9155
-35.9966
-38.8905
-40.4938
-41.0105
-40.8691
-40.5778
-40.1845
-39.3946
-0.402554
-0.221212
-0.581697
-0.805865
-1.36317
-2.23034
-3.50159
-5.25131
-7.49647
-10.2718
-13.6867
-17.791
-22.5701
-27.8146
-32.9575
-37.2823
-40.19
-41.4305
-41.1859
-40.0619
-38.8093
-37.4669
-35.6313
-0.399295
-0.2222
-0.582022
-0.809187
-1.37466
-2.25096
-3.53627
-5.30116
-7.56786
-10.3718
-13.8428
-18.0456
-23.0012
-28.5199
-34.0105
-38.6439
-41.6712
-42.6912
-41.8526
-39.9753
-38.035
-35.9552
-33.2669
-0.397699
-0.223431
-0.58338
-0.814998
-1.38824
-2.27317
-3.57069
-5.34868
-7.63341
-10.4629
-13.9853
-18.2821
-23.412
-29.2131
-35.0889
-40.1177
-43.4156
-44.4349
-43.2875
-41.0202
-38.6958
-36.0288
-32.6462
-0.398161
-0.224973
-0.586234
-0.822928
-1.4032
-2.29608
-3.60397
-5.39334
-7.69339
-10.546
-14.1156
-18.5018
-23.8024
-29.893
-36.1947
-41.725
-45.4864
-46.8031
-45.7574
-43.5554
-41.1583
-38.1197
-34.3186
-0.400735
-0.226775
-0.590469
-0.832032
-1.41827
-2.31812
-3.63451
-5.43377
-7.74683
-10.6203
-14.2329
-18.7028
-24.1691
-30.5546
-37.3241
-43.4768
-47.9312
-49.9211
-49.5107
-47.9256
-45.936
-43.0839
-39.3823
-0.404974
-0.22868
-0.59558
-0.841099
-1.43204
-2.33778
-3.66093
-5.46875
-7.79284
-10.6847
-14.3356
-18.8823
-24.5064
-31.1892
-38.4662
-45.3692
-50.7751
-53.8836
-54.7604
-54.51
-53.7523
-52.0345
-49.1905
-0.410023
-0.230367
-0.600825
-0.849106
-1.44357
-2.35423
-3.68282
-5.49824
-7.83182
-10.7398
-14.4238
-19.0394
-24.8114
-31.7903
-39.6093
-47.3889
-54.0205
-58.7358
-61.6342
-63.613
-65.1164
-65.4864
-64.1983
-0.414978
-0.23161
-0.605614
-0.855453
-1.45258
-2.36751
-3.70079
-5.52331
-7.8653
-10.787
-14.4987
-19.174
-25.081
-32.3497
-40.7359
-49.5048
-57.6328
-64.4361
-70.0623
-75.1288
-79.6365
-82.4304
-82.7698
-0.419161
-0.232301
-0.609596
-0.860098
-1.45944
-2.37841
-3.71623
-5.54576
-7.89548
-10.8286
-14.5624
-19.2868
-25.3135
-32.8594
-41.8254
-51.6708
-61.5321
-70.8285
-79.7226
-88.4277
-96.0826
-100.904
-102.348
-0.422274
-0.232558
-0.612771
-0.863393
-1.46491
-2.38808
-3.73072
-5.56735
-7.92429
-10.8662
-14.6158
-19.3776
-25.505
-33.3073
-42.8496
-53.8206
-65.5832
-77.6536
-90.1093
-102.525
-112.904
-119.009
-120.874
-0.424323
-0.232561
-0.615301
-0.865918
-1.4699
-2.39762
-3.74559
-5.5894
-7.95295
-10.9007
-14.6595
-19.4456
-25.6516
-33.6807
-43.7756
-55.8738
-69.61
-84.584
-100.624
-116.371
-128.743
-135.514
-137.525
-0.425541
-0.232557
-0.61747
-0.868215
-1.47511
-2.40779
-3.76156
-5.61238
-7.98161
-10.9319
-14.6925
-19.4884
-25.7473
-33.9634
-44.5642
-57.7395
-73.4109
-91.2458
-110.655
-129.116
-142.706
-149.719
-151.793
-0.42621
-0.232691
-0.61949
-0.870706
-1.48097
-2.4189
-3.77872
-5.63605
-8.00959
-10.9587
-14.7132
-19.5035
-25.7867
-34.1401
-45.1742
-59.3249
-76.7809
-97.2599
-119.626
-140.194
-154.512
-161.69
-164.019
-0.426632
-0.233078
-0.621534
-0.873581
-1.48758
-2.43086
-3.79669
-5.65959
-8.03572
-10.9795
-14.7197
-19.4879
-25.7638
-34.1951
-45.5632
-60.5386
-79.5283
-102.294
-127.083
-149.206
-164.021
-171.432
-174.057
-0.427008
-0.233696
-0.623643
-0.876886
-1.49482
-2.44332
-3.81481
-5.68209
-8.05874
-10.993
-14.7106
-19.4398
-25.6743
-34.1158
-45.6922
-61.2984
-81.4916
-106.067
-132.673
-155.896
-171.16
-178.907
-181.841
-0.427492
-0.234516
-0.625829
-0.88051
-1.50242
-2.45581
-3.8324
-5.7027
-8.07769
-10.9984
-14.6849
-19.3578
-25.5146
-33.8918
-45.5271
-61.5326
-82.5458
-108.371
-136.143
-160.075
-175.823
-183.969
-187.203
-0.428125
-0.235425
-0.628025
-0.884321
-1.51011
-2.46796
-3.84894
-5.72092
-8.09205
-10.9953
-14.6425
-19.2418
-25.2829
-33.5169
-45.0432
-61.1815
-82.5999
-109.078
-137.383
-161.686
-177.885
-186.48
-190.027
-0.42893
-0.236356
-0.630196
-0.888152
-1.51763
-2.47946
-3.86414
-5.73657
-8.10186
-10.984
-14.5839
-19.0924
-24.9784
-32.9873
-44.2256
-60.2023
-81.6044
-108.133
-136.406
-160.761
-177.252
-186.163
-190.072
-0.429848
-0.237198
-0.632274
-0.891898
-1.52484
-2.49021
-3.87795
-5.74983
-8.10746
-10.9654
-14.5103
-18.9111
-24.6019
-32.3023
-43.072
-58.5707
-79.5279
-105.525
-133.267
-157.365
-174.02
-183.214
-187.243
-0.430847
-0.237941
-0.634266
-0.895477
-1.53166
-2.50024
-3.89055
-5.76113
-8.10961
-10.9405
-14.423
-18.6998
-24.1556
-31.4639
-41.5917
-56.2806
-76.3405
-101.307
-128.072
-151.568
-168.133
-177.651
-182.048
-0.431795
-0.238484
-0.636112
-0.89886
-1.53813
-2.5097
-3.90224
-5.77106
-8.10913
-10.9105
-14.3238
-18.4611
-23.6435
-30.4773
-39.8067
-53.3436
-72.053
-95.5939
-120.98
-143.511
-159.621
-169.259
-174.088
-0.432494
-0.238964
-0.637814
-0.90198
-1.54426
-2.5189
-3.9139
-5.78143
-8.10944
-10.8817
-14.2238
-18.2157
-23.1039
-29.4081
-37.8374
-49.9472
-66.9511
-88.731
-112.475
-133.811
-149.155
-158.544
-163.473
-0.434482
-0.239935
-0.640058
-0.905297
-1.55072
-2.52899
-3.92771
-5.79638
-8.11813
-10.8682
-14.1495
-18.0137
-22.6298
-28.4216
-35.9599
-46.5649
-61.7202
-81.515
-103.532
-123.625
-138.104
-147.057
-151.849
-0.435799
-0.240444
-0.6419
-0.908203
-1.55737
-2.54058
-3.94542
-5.81924
-8.14101
-10.88
-14.1184
-17.8879
-22.2858
-27.6441
-34.3982
-43.6497
-57.0228
-74.804
-95.111
-113.951
-127.546
-136.048
-140.633
-0.436279
-0.240466
-0.643219
-0.910701
-1.56439
-2.55407
-3.96765
-5.8507
-8.17833
-10.9165
-14.1288
-17.8371
-22.0736
-27.0921
-33.2027
-41.3509
-53.1047
-68.9816
-87.6228
-105.213
-117.956
-126.034
-130.218
-0.436223
-0.240324
-0.644221
-0.913028
-1.57205
-2.56973
-3.99443
-5.89012
-8.22818
-10.9734
-14.1729
-17.8487
-21.9743
-26.748
-32.3739
-39.6576
-50.0185
-64.2201
-81.2803
-97.6334
-109.557
-117.11
-120.615
-0.435692
-0.240172
-0.645039
-0.915507
-1.58076
-2.58794
-4.02586
-5.93684
-8.28851
-11.0461
-14.242
-17.9074
-21.9613
-26.5789
-31.8634
-38.4554
-47.6769
-60.4732
-76.0778
-91.188
-102.258
-109.059
-111.781
-0.434759
-0.240116
-0.645842
-0.918381
-1.59069
-2.60861
-4.06122
-5.98895
-8.35576
-11.128
-14.3259
-17.9949
-22.0064
-26.5412
-31.5893
-37.6264
-45.9649
-57.6049
-71.9068
-85.7703
-95.8807
-101.838
-103.926
-0.43348
-0.240236
-0.646759
-0.921912
-1.60209
-2.63187
-4.10038
-6.04586
-8.42868
-11.2164
-14.4205
-18.1026
-22.0971
-26.6084
-31.499
-37.111
-44.7979
-55.4844
-68.6528
-81.3189
-90.3853
-95.5505
-97.2446
-0.432238
-0.240595
-0.648076
-0.926286
-1.61509
-2.65761
-4.14281
-6.10627
-8.50497
-11.307
-14.5182
-18.2151
-22.2065
-26.7174
-31.4947
-36.779
-43.9408
-53.7381
-65.7766
-77.1796
-85.0647
-89.4399
-90.8344
-0.430419
-0.240764
-0.64895
-0.930588
-1.62811
-2.68323
-4.1842
-6.16339
-8.57443
-11.3844
-14.5967
-18.2979
-22.2863
-26.7922
-31.4872
-36.5354
-43.2466
-52.2429
-63.2461
-73.4456
-80.1509
-83.8341
-84.9938
-0.428874
-0.241422
-0.650498
-0.935936
-1.64232
-2.70974
-4.22533
-6.21769
-8.63731
-11.4488
-14.6555
-18.3476
-22.3274
-26.8009
-31.4389
-36.307
-42.5884
-50.8218
-60.8123
-69.8783
-75.5728
-78.6955
-79.6201
-0.427692
-0.242565
-0.652789
-0.942349
-1.65757
-2.73682
-4.26581
-6.26906
-8.69423
-11.502
-14.6981
-18.3684
-22.3314
-26.7395
-31.3316
-36.0225
-41.8519
-49.3118
-58.2465
-66.2141
-71.088
-73.637
-74.2713
-0.426762
-0.243926
-0.655475
-0.949198
-1.67296
-2.76328
-4.30431
-6.31631
-8.74447
-11.5445
-14.726
-18.3642
-22.3023
-26.6203
-31.1567
-35.6559
-40.9798
-47.6521
-55.5052
-62.4121
-66.5186
-68.4124
-68.6885
-0.425993
-0.245281
-0.658258
-0.956027
-1.68786
-2.78834
-4.34003
-6.35897
-8.78815
-11.5778
-14.7416
-18.3409
-22.2465
-26.4555
-30.9097
-35.2064
-39.9711
-45.8564
-52.6323
-58.5123
-61.8104
-63.0007
-62.8587
-0.425417
-0.246582
-0.661022
-0.962549
-1.70193
-2.81172
-4.37298
-6.39766
-8.82678
-11.6049
-14.7498
-18.3068
-22.1724
-26.2566
-30.5947
-34.6753
-38.8603
-43.9721
-49.6767
-54.5548
-57.0028
-57.502
-56.8773
-0.424957
-0.247739
-0.663604
-0.968606
-1.71505
-2.83346
-4.40357
-6.4334
-8.86211
-11.6291
-14.7546
-18.2689
-22.0862
-26.0368
-30.222
-34.0632
-37.6877
-42.0503
-46.6812
-50.5555
-52.155
-52.0389
-50.893
-0.424559
-0.248728
-0.665907
-0.974058
-1.72718
-2.85372
-4.43231
-6.4672
-8.89568
-11.6526
-14.7586
-18.2317
-21.9929
-25.8141
-29.8085
-33.3873
-36.499
-40.1404
-43.7136
-46.5644
-47.306
-46.6629
-45.0458
-0.424111
-0.249501
-0.667851
-0.978944
-1.73847
-2.87288
-4.45983
-6.49998
-8.92857
-11.6765
-14.7627
-18.1967
-21.8947
-25.6001
-29.3705
-32.6777
-35.3333
-38.2714
-40.8153
-42.679
-42.5803
-41.3765
-39.3905
-0.423616
-0.250134
-0.669517
-0.983384
-1.74917
-2.89137
-4.48676
-6.53254
-8.96154
-11.7015
-14.7669
-18.1641
-21.7929
-25.3968
-28.9203
-31.9609
-34.2071
-36.4545
-38.0321
-39.0029
-38.0895
-36.2617
-33.9936
-0.423043
-0.250666
-0.670997
-0.987627
-1.75964
-2.9097
-4.51368
-6.56535
-8.9948
-11.7271
-14.77
-18.1311
-21.6848
-25.1945
-28.4617
-31.2388
-33.1012
-34.6811
-35.3601
-35.4989
-33.838
-31.4727
-28.9308
-0.422455
-0.251207
-0.672453
-0.991856
-1.77015
-2.92816
-4.54083
-6.59849
-9.02804
-11.7521
-14.7699
-18.0938
-21.5663
-24.9803
-27.997
-30.4951
-31.9789
-32.9273
-32.7276
-32.0749
-29.709
-26.9979
-24.3124
-0.421839
-0.251774
-0.673957
-0.996244
-1.78087
-2.94691
-4.56819
-6.63159
-9.06036
-11.7748
-14.7639
-18.0461
-21.4293
-24.7383
-27.5178
-29.703
-30.7978
-31.1517
-30.0749
-28.6054
-25.6056
-22.6687
-20.019
-0.421252
-0.252424
-0.675597
-1.00082
-1.79181
-2.96583
-4.59546
-6.66399
-9.09066
-11.7931
-14.7492
-17.9825
-21.2659
-24.4516
-27.0014
-28.8421
-29.5228
-29.3095
-27.4122
-25.1363
-21.6369
-18.4846
-15.86
-0.420663
-0.253122
-0.677351
-1.00561
-1.80293
-2.98476
-4.62224
-6.69493
-9.11775
-11.8052
-14.7231
-17.8976
-21.0681
-24.1022
-26.4177
-27.8954
-28.1292
-27.3675
-24.7888
-21.8301
-17.993
-14.6042
-11.9181
-0.420116
-0.253886
-0.679233
-1.01052
-1.81406
-3.00341
-4.64806
-6.72374
-9.14077
-11.8097
-14.6842
-17.7886
-20.8324
-23.6791
-25.7492
-26.8573
-26.6121
-25.3236
-22.2126
-18.7726
-14.7797
-11.2519
-8.41351
-0.419563
-0.254658
-0.681174
-1.01551
-1.82509
-3.02158
-4.6726
-6.74994
-9.15919
-11.8061
-14.6319
-17.6544
-20.5577
-23.1807
-24.9898
-25.7255
-24.9816
-23.1994
-19.6838
-15.8724
-11.899
-8.4525
-5.49016
-0.419048
-0.255454
-0.683168
-1.02047
-1.83588
-3.03904
-4.69562
-6.77332
-9.17288
-11.7943
-14.5669
-17.4965
-20.2476
-22.6174
-24.1455
-24.5017
-23.2623
-21.0302
-17.2449
-13.1053
-9.20378
-5.90985
-2.92922
-0.418515
-0.25622
-0.685149
-1.02538
-1.84637
-3.05572
-4.71702
-6.79381
-9.18196
-11.7749
-14.49
-17.3173
-19.9068
-22.0046
-23.2352
-23.2011
-21.489
-18.8504
-14.9421
-10.5419
-6.68808
-3.48122
-0.538916
-0.41801
-0.256987
-0.68713
-1.03018
-1.85649
-3.07156
-4.7368
-6.81154
-9.18676
-11.7486
-14.4029
-17.1204
-19.5418
-21.3597
-22.2828
-21.8573
-19.7062
-16.697
-12.8092
-8.2619
-4.41286
-1.22877
1.65657
-0.417477
-0.257713
-0.689063
-1.03488
-1.86626
-3.08658
-4.75503
-6.82665
-9.18757
-11.7159
-14.3066
-16.9086
-19.1582
-20.6944
-21.2984
-20.4985
-17.9535
-14.6011
-10.7877
-6.25643
-2.42744
0.742177
3.52772
-0.416969
-0.258439
-0.69098
-1.03945
-1.87565
-3.10079
-4.77177
-6.83931
-9.18463
-11.6774
-14.202
-16.6849
-18.7614
-20.0188
-20.2858
-19.1422
-16.2596
-12.6361
-8.84001
-4.47111
-0.704355
2.40063
5.02455
-0.416425
-0.259133
-0.692848
-1.04394
-1.88471
-3.11426
-4.7871
-6.84957
-9.17798
-11.6332
-14.0891
-16.4502
-18.3536
-19.3392
-19.2527
-17.8038
-14.6426
-10.7885
-7.02123
-2.88685
0.770232
3.77315
6.22609
-0.415904
-0.25984
-0.694708
-1.04832
-1.89344
-3.12698
-4.80102
-6.85747
-9.16754
-11.5831
-13.968
-16.2052
-17.936
-18.6619
-18.2173
-16.4973
-13.1322
-9.0532
-5.34393
-1.46828
2.00786
4.87398
7.15148
-0.415343
-0.260526
-0.696531
-1.05264
-1.90188
-3.13901
-4.81354
-6.86289
-9.15301
-11.5267
-13.8375
-15.9489
-17.5069
-17.9893
-17.1987
-15.2272
-11.7545
-7.51002
-3.79182
-0.16969
3.04268
5.70189
7.78209
-0.414807
-0.261237
-0.698358
-1.05687
-1.91001
-3.15028
-4.82457
-6.86568
-9.13405
-11.4634
-13.697
-15.6808
-17.0654
-17.323
-16.2156
-14.01
-10.52
-6.22365
-2.4621
0.964504
3.886
6.28839
8.16114
-0.414226
-0.261935
-0.700156
-1.06107
-1.91785
-3.16082
-4.83403
-6.86558
-9.11017
-11.3924
-13.5452
-15.3989
-16.6088
-16.6604
-15.2805
-12.8695
-9.42036
-5.19561
-1.43122
1.85871
4.52027
6.68713
8.36935
-0.413671
-0.262664
-0.701963
-1.06519
-1.92536
-3.17052
-4.84175
-6.86236
-9.08094
-11.3131
-13.3813
-15.1026
-16.1366
-15.9994
-14.3979
-11.8196
-8.43814
-4.36594
-0.674465
2.49501
4.9561
6.93319
8.44786
-0.413063
-0.263382
-0.703739
-1.06926
-1.93254
-3.17936
-4.84761
-6.8557
-9.04586
-11.2248
-13.2044
-14.7907
-15.6477
-15.336
-13.5605
-10.8554
-7.54885
-3.66466
-0.115205
2.91992
5.21763
7.03121
8.40246
-0.412481
-0.264129
-0.705519
-1.07324
-1.93934
-3.18722
-4.85143
-6.84536
-9.00458
-11.1271
-13.0142
-14.4634
-15.1431
-14.669
-12.7565
-9.96424
-6.72638
-3.04828
0.324321
3.19161
5.33352
6.99723
8.23807
-0.411838
-0.26486
-0.70726
-1.07715
-1.94574
-3.19406
-4.85305
-6.83106
-8.95672
-11.0196
-12.8105
-14.1207
-14.6236
-13.9981
-11.9744
-9.12935
-5.95343
-2.49616
0.688467
3.35483
5.33398
6.85735
7.97997
-0.411216
-0.265616
-0.708994
-1.08095
-1.95166
-3.19974
-4.8523
-6.81257
-8.90205
-10.9022
-12.5936
-13.7638
-14.0917
-13.3268
-11.2118
-8.34096
-5.23216
-2.00428
0.984617
3.43472
5.24924
6.63973
7.65704
-0.410524
-0.266349
-0.710674
-1.08464
-1.95711
-3.20422
-4.84904
-6.78965
-8.8403
-10.7746
-12.3637
-13.3938
-13.5499
-12.6586
-10.4751
-7.59955
-4.5716
-1.56933
1.21027
3.44916
5.10479
6.36864
7.29549
-0.409848
-0.267101
-0.71233
-1.08819
-1.962
-3.20737
-4.8431
-6.76213
-8.77137
-10.6371
-12.1218
-13.013
-13.0032
-11.9964
-9.77387
-6.91428
-3.97599
-1.18717
1.37695
3.41325
4.92194
6.0699
6.91345
-0.409089
-0.267825
-0.713914
-1.0916
-1.96632
-3.20914
-4.83436
-6.72983
-8.69511
-10.4896
-11.8683
-12.6228
-12.4557
-11.3406
-9.10936
-6.29159
-3.4448
-0.853812
1.49972
3.34191
4.71375
5.75833
6.52395
-0.408336
-0.26856
-0.715458
-1.09481
-1.96998
-3.20939
-4.82266
-6.69258
-8.61143
-10.3325
-11.6043
-12.2253
-11.9105
-10.6951
-8.47517
-5.73104
-2.97818
-0.568042
1.58395
3.24138
4.48914
5.43888
6.13164
-0.407487
-0.269266
-0.716911
-1.09786
-1.973
-3.20811
-4.80794
-6.6503
-8.52033
-10.1658
-11.3305
-11.822
-11.3699
-10.067
-7.86355
-5.22733
-2.58249
-0.331986
1.62762
3.11664
4.2503
5.11291
5.7408
-0.40663
-0.269961
-0.7183
-1.10066
-1.97523
-3.20508
-4.78985
-6.60258
-8.42141
-9.98944
-11.0476
-11.414
-10.8364
-9.46119
-7.27142
-4.76586
-2.24785
-0.139973
1.6361
2.97554
4.00489
4.78673
5.35476
-0.405734
-0.270675
-0.719648
-1.10342
-1.97707
-3.20091
-4.76923
-6.55038
-8.31573
-9.80455
-10.7571
-11.005
-10.3184
-8.87922
-6.70345
-4.36942
-2.02062
-0.0133925
1.59753
2.80781
3.74975
4.46049
4.97416
-0.405036
-0.271206
-0.721048
-1.10623
-1.97837
-3.19439
-4.74251
-6.48662
-8.192
-9.59658
-10.4433
-10.5712
-9.78529
-8.30118
-6.15412
-3.92034
-1.70657
0.162339
1.58843
2.66941
3.51846
4.16364
4.6358
-0.402145
-0.270222
-0.719742
-1.1059
-1.97356
-3.17669
-4.69654
-6.39361
-8.02928
-9.34408
-10.0927
-10.1309
-9.29293
-7.81793
-5.77339
-3.70582
-1.6935
0.0272533
1.36408
2.38552
3.17705
3.77937
4.22413
-0.400262
-0.270081
-0.718856
-1.10514
-1.96509
-3.14947
-4.63182
-6.27018
-7.82511
-9.04083
-9.68821
-9.6526
-8.7866
-7.3513
-5.44448
-3.53917
-1.72149
-0.159886
1.09298
2.05739
2.7992
3.36321
3.78466
-0.399488
-0.271311
-0.719165
-1.10511
-1.95449
-3.11472
-4.55086
-6.11885
-7.58127
-8.68672
-9.2227
-9.1113
-8.22255
-6.83447
-5.06131
-3.28998
-1.63892
-0.245874
0.881072
1.75692
2.43533
2.95382
3.34969
-0.398805
-0.273172
-0.71976
-1.10459
-1.94018
-3.07033
-4.45102
-5.93633
-7.29329
-8.27879
-8.69763
-8.50956
-7.60992
-6.27601
-4.62547
-2.98992
-1.50056
-0.272045
0.712243
1.48489
2.08924
2.55595
2.91908
-0.397437
-0.275022
-0.719742
-1.10236
-1.92023
-3.01345
-4.32857
-5.71827
-6.95641
-7.81421
-8.11587
-7.85701
-6.9667
-5.70513
-4.18394
-2.70398
-1.38053
-0.302692
0.552283
1.22627
1.75694
2.1709
2.49536
-0.395512
-0.276781
-0.718829
-1.09761
-1.89329
-2.94217
-4.18126
-5.46298
-6.57019
-7.29408
-7.47999
-7.15736
-6.29439
-5.12933
-3.76161
-2.45171
-1.29286
-0.351758
0.392198
0.977953
1.44126
1.80402
2.09091
-0.392877
-0.278309
-0.716661
-1.08981
-1.85839
-2.85517
-4.00797
-5.1706
-6.13734
-6.72325
-6.79623
-6.41765
-5.59581
-4.54786
-3.355
-2.22195
-1.22232
-0.406787
0.237573
0.745191
1.14841
1.46437
1.71637
-0.389595
-0.279474
-0.712856
-1.07814
-1.8144
-2.75117
-3.80793
-4.84215
-5.66241
-6.11083
-6.08017
-5.65939
-4.89065
-3.97116
-2.95735
-2.0005
-1.15297
-0.453748
0.0994276
0.537923
0.887594
1.16265
1.38335
-0.385418
-0.280056
-0.706899
-1.06194
-1.7603
-2.62913
-3.58098
-4.47975
-5.15203
-5.47035
-5.35461
-4.91284
-4.20724
-3.41549
-2.57014
-1.77719
-1.07277
-0.482118
-0.0116298
0.364486
0.667077
0.907441
1.10152
-0.380587
-0.280099
-0.698555
-1.04053
-1.69529
-2.48867
-3.32835
-4.08802
-4.61636
-4.81912
-4.64296
-4.20365
-3.56846
-2.89343
-2.19794
-1.54987
-0.974745
-0.484194
-0.088443
0.231389
0.491601
0.70084
0.871305
-0.374987
-0.279514
-0.687466
-1.01345
-1.61893
-2.33031
-3.05315
-3.67453
-4.06888
-4.17543
-3.96374
-3.54642
-2.98553
-2.414
-1.84576
-1.32205
-0.85915
-0.458681
-0.131743
0.137244
0.35882
0.539292
0.687743
-0.368792
-0.278337
-0.673357
-0.980008
-1.53094
-2.15538
-2.76029
-3.24941
-3.52493
-3.55629
-3.33006
-2.9483
-2.46226
-1.98279
-1.52148
-1.10151
-0.733925
-0.411552
-0.145093
0.0772193
0.262397
0.414886
0.541908
-0.361602
-0.276163
-0.655519
-0.939477
-1.43128
-1.96606
-2.45617
-2.82415
-2.99952
-2.976
-2.75139
-2.41362
-2.00093
-1.6026
-1.23078
-0.895945
-0.607193
-0.351134
-0.136455
0.0452126
0.198603
0.326277
0.433114
-0.353319
-0.272742
-0.633277
-0.890944
-1.32022
-1.76541
-2.14819
-2.4103
-2.50583
-2.44586
-2.23426
-1.94428
-1.60152
-1.27416
-0.975608
-0.708872
-0.482306
-0.280177
-0.108442
0.0389243
0.164766
0.27077
0.360202
-0.343322
-0.267255
-0.605636
-0.833796
-1.19875
-1.55753
-1.84423
-2.01836
-2.05407
-1.97319
-1.78185
-1.53894
-1.25976
-0.993605
-0.754413
-0.541017
-0.361405
-0.201024
-0.0632312
0.0565699
0.160049
0.248309
0.323531
-0.331511
-0.259271
-0.571954
-0.767752
-1.06874
-1.34731
-1.55198
-1.65675
-1.65065
-1.56085
-1.39314
-1.19344
-0.969694
-0.755094
-0.563838
-0.39283
-0.249167
-0.121449
-0.0106098
0.0869414
0.172075
0.245506
0.308742
-0.317187
-0.247855
-0.531585
-0.693373
-0.933076
-1.1402
-1.27814
-1.33131
-1.29828
-1.20778
-1.06415
-0.902082
-0.725498
-0.554325
-0.402134
-0.265368
-0.150039
-0.0483889
0.0408597
0.120444
0.190472
0.251325
0.304056
-0.300366
-0.23268
-0.48464
-0.61196
-0.795429
-0.94157
-1.02788
-1.04511
-0.996826
-0.910802
-0.790162
-0.659999
-0.522694
-0.388204
-0.268343
-0.15976
-0.0670706
0.0140343
0.0860698
0.150563
0.207628
0.257432
0.300387
-0.280436
-0.213122
-0.431545
-0.525731
-0.659939
-0.756218
-0.804567
-0.799021
-0.744433
-0.666145
-0.566833
-0.463685
-0.358724
-0.255082
-0.162228
-0.0775005
-0.00379646
0.0606148
0.117934
0.169212
0.214689
0.25445
0.288489
-0.257575
-0.189365
-0.373659
-0.437503
-0.530702
-0.58805
-0.610033
-0.592131
-0.538089
-0.469491
-0.389432
-0.308912
-0.230209
-0.152179
-0.081724
-0.0169439
0.0407314
0.0914691
0.136672
0.176963
0.212768
0.244195
0.270713
-0.231616
-0.161616
-0.312775
-0.350495
-0.411525
-0.43997
-0.444815
-0.422162
-0.373498
-0.31564
-0.252376
-0.190356
-0.132295
-0.0749557
-0.0227139
0.0255872
0.069625
0.108877
0.143966
0.175142
0.202557
0.226424
0.246347
-0.20309
-0.130968
-0.251388
-0.268087
-0.305515
-0.314
-0.308454
-0.285959
-0.245419
-0.198678
-0.149761
-0.102587
-0.060175
-0.0189849
0.0189143
0.0540619
0.0868482
0.11659
0.143204
0.166897
0.187443
0.20496
0.219465
-0.172708
-0.098778
-0.19235
-0.193338
-0.215133
-0.21114
-0.199979
-0.18005
-0.148566
-0.112584
-0.0759151
-0.0406315
-0.0097872
0.0193803
0.0464203
0.0714547
0.0952607
0.117308
0.136939
0.154231
0.168998
0.18149
0.192003
-0.141559
-0.0672238
-0.138381
-0.129078
-0.141732
-0.131467
-0.11791
-0.101308
-0.0782384
-0.0519721
-0.0255563
8.86536e-05
0.0223834
0.0428727
0.0619901
0.0796396
0.0967193
0.112915
0.127252
0.13946
0.149772
0.158622
0.166293
-0.111465
-0.0383
-0.0921493
-0.0769998
-0.0856786
-0.07372
-0.0601478
-0.0466931
-0.030607
-0.0124606
0.00552358
0.0232355
0.03879
0.0528285
0.0660574
0.0782863
0.0902616
0.101896
0.112055
0.120356
0.127224
0.133261
0.138573
-0.0837071
-0.0141565
-0.0552762
-0.0378896
-0.0458408
-0.0354367
-0.0234028
-0.0127588
-0.00178736
0.0101794
0.0218198
0.0333709
0.0437739
0.0531028
0.0621103
0.0705654
0.0789958
0.0874093
0.0946134
0.100405
0.105143
0.109414
0.113149
-0.0600372
0.00398376
-0.0284104
-0.0112454
-0.0201619
-0.0131509
-0.00382528
0.00410256
0.0113048
0.0187439
0.0257228
0.0325922
0.0389437
0.044639
0.0503352
0.055852
0.0615233
0.0673446
0.072191
0.0760115
0.0792274
0.0822382
0.0847749
-0.0409485
0.0162108
-0.0104612
0.00503325
-0.00529641
-0.00230908
0.00374181
0.00901298
0.0134561
0.0178812
0.021864
0.0257037
0.0293605
0.0326673
0.0361108
0.0396323
0.0434509
0.0474726
0.0508109
0.0535184
0.0559744
0.0582492
0.060192
-0.0289528
0.0208192
-0.00175912
0.0117423
0.000334563
-0.000699915
0.0011107
0.00218364
0.00224767
0.00205365
0.00141007
0.000599999
-0.000239196
-0.00103475
-0.00146562
-0.00161659
-0.00123334
-0.000829761
-0.00068228
-0.000642242
-0.00042963
-4.04829e-05
0.000571883
-0.0171211
0.0222638
0.00576447
0.0172145
0.00832668
0.00779402
0.0107936
0.0140201
0.0168673
0.0199435
0.0228341
0.025676
0.0284657
0.0311683
0.0338887
0.0367522
0.0400003
0.0431849
0.0460512
0.0484864
0.050078
0.0507083
0.0507898
1.531
1.53628
1.72792
2.08164
2.53448
3.10907
3.84102
4.77464
5.94739
7.3888
9.12046
11.154
13.4937
16.1236
18.9994
22.0379
25.1266
28.1362
30.9449
33.4545
35.6137
37.3958
38.8611
1.49227
1.53092
1.69887
2.02502
2.45337
3.00009
3.69914
4.59104
5.71371
7.09877
8.76905
10.7355
12.9966
15.5292
18.281
21.1657
24.0712
26.8738
29.4604
31.7443
33.6833
35.2638
36.5463
1.44145
1.50515
1.65241
1.94584
2.34172
2.84991
3.50197
4.335
5.38641
6.68958
8.26936
10.1374
12.2892
14.6968
17.3028
20.0184
22.733
25.3282
27.699
29.7692
31.505
32.9028
34.0217
1.37709
1.45307
1.58246
1.83883
2.19427
2.6534
3.24413
4.00051
4.95864
6.15293
7.61059
9.34539
11.3529
13.6037
16.0385
18.5689
21.0865
23.4781
25.6461
27.5221
29.0788
30.3205
31.3033
1.29709
1.36979
1.48259
1.69862
2.00552
2.40507
2.92026
3.58182
4.42424
5.48224
6.78559
8.35132
10.1779
12.2381
14.475
16.8033
19.1191
21.3139
23.2967
25.0042
26.4123
27.5293
28.4081
1.19539
1.25195
1.34657
1.51966
1.76994
2.09902
2.52419
3.07232
3.77569
4.66918
5.7847
7.14391
8.75044
10.5833
12.5919
14.6986
16.8071
18.8162
20.6391
22.2149
23.5182
24.5546
25.3686
1.05828
1.09715
1.16922
1.29601
1.48165
1.72812
2.04719
2.46085
2.99884
3.69586
4.58669
5.69864
7.04349
8.60982
10.3579
12.2209
14.1136
15.9439
17.6304
19.1138
20.3649
21.3814
22.1939
0.869647
0.901199
0.945336
1.02088
1.13349
1.28347
1.47708
1.73112
2.07294
2.53832
3.16689
3.99445
5.04396
6.31659
7.78528
9.39527
11.0717
12.7321
14.3005
15.7181
16.9505
17.985
18.8382
1.54129
1.29308
1.85811
2.25486
2.78766
3.4662
4.29017
5.37537
6.71132
8.28971
10.1395
12.2092
14.5719
17.2224
20.1635
23.3082
26.525
29.6553
32.5536
35.1168
37.2886
39.0762
40.4944
1.55122
1.30427
1.86365
2.25791
2.78505
3.46117
4.28299
5.36535
6.7003
8.28505
10.1506
12.2589
14.678
17.4105
20.4557
23.7316
27.1104
30.4359
33.5609
36.3717
38.7999
40.8363
42.4819
1.56166
1.31507
1.86977
2.2634
2.78485
3.4577
4.27665
5.35406
6.68497
8.27174
10.1466
12.2846
14.749
17.549
20.6797
24.0634
27.575
31.0618
34.3768
37.3991
40.0518
42.3094
44.1651
1.57252
1.3249
1.87439
2.26983
2.78625
3.45521
4.27117
5.3423
6.66692
8.2518
10.1295
12.2878
14.7855
17.6374
20.8349
24.3025
27.9177
31.5304
34.9954
38.1874
41.0237
43.4651
45.5012
1.58391
1.33417
1.87577
2.27509
2.78709
3.45163
4.26437
5.32825
6.64492
8.22476
10.0999
12.2694
14.7884
17.6762
20.9213
24.4492
28.1388
31.8424
35.4163
38.7328
41.7069
44.2876
46.4649
1.59542
1.34382
1.87291
2.27752
2.78634
3.44669
4.25688
5.31359
6.62192
8.19491
10.0633
12.2356
14.7636
17.6707
20.9433
24.5074
28.2427
32.0027
35.6451
39.0408
42.1043
44.7763
47.0497
1.60659
1.35519
1.86597
2.27622
2.78264
3.43907