/*--------------------------------*- C++ -*----------------------------------*\
  =========                 |
  \\      /  F ield         | OpenFOAM: The Open Source CFD Toolbox
   \\    /   O peration     | Website:  https://openfoam.org
    \\  /    A nd           | Version:  7
     \\/     M anipulation  |
\*---------------------------------------------------------------------------*/
FoamFile
{
    version     2.0;
    format      ascii;
    class       surfaceScalarField;
    location    "81";
    object      phi;
}
// * * * * * * * * * * * * * * * * * * * * * * * * * * * * * * * * * * * * * //

dimensions      [0 3 -1 0 0 0 0];

internalField   nonuniform List<scalar> 
25449
(
67.2743
52.2918
-28.3435
49.9145
38.9149
-21.5551
37.2125
29.1036
-16.4016
27.8488
21.8564
-12.4927
20.9046
16.4741
-9.52991
15.7301
12.4592
-7.28477
11.8598
9.45312
-5.58278
8.95631
7.19483
-4.29134
6.77323
5.493
-3.30993
5.12914
4.20652
-2.56244
3.88969
3.23086
-1.9914
2.95484
2.48835
-1.55351
2.24979
1.92121
-1.21617
1.71838
1.48633
-0.954924
1.31824
1.15161
-0.75147
1.01734
0.893003
-0.592105
0.791404
0.692522
-0.46659
0.622021
0.536666
-0.367283
0.495209
0.415284
-0.288473
0.40037
0.320705
-0.225865
0.329484
0.247074
-0.176189
0.276495
0.189871
-0.136882
0.145542
-0.105945
0.236897
52.0238
70.429
38.7693
52.1695
29.0075
38.8654
21.7735
29.0903
16.3863
21.8614
12.3584
16.4871
9.33749
12.474
7.06626
9.46606
5.35554
7.20373
4.06541
5.49665
3.09185
4.20441
2.35719
3.22301
1.80316
2.47524
1.38583
1.90367
1.07197
1.46547
0.836359
1.12861
0.659834
0.869046
0.527828
0.668672
0.429282
0.51383
0.355809
0.394177
0.301073
0.301811
0.260285
0.230658
0.175925
0.229901
39.2926
83.7041
29.4704
61.9918
22.1649
46.1709
16.7089
34.5464
12.6206
25.9496
9.54901
19.5587
7.23628
14.7867
5.49198
11.2104
4.17482
8.52089
3.1795
6.49197
2.42733
4.95658
1.85925
3.79109
1.43077
2.90372
1.10818
2.22625
0.865863
1.70779
0.684258
1.31021
0.548464
1.00484
0.447141
0.769993
0.371677
0.589293
0.315548
0.450305
0.27383
0.343528
0.24281
0.261678
0.198989
0.219745
29.32
93.1201
22.2089
69.103
16.8346
51.5452
12.7714
38.6097
9.69761
29.0233
7.37096
21.8853
5.60882
16.5489
4.27352
12.5457
3.26138
9.53303
2.49427
7.25909
1.91325
5.5376
1.47379
4.23055
1.1421
3.23541
0.892436
2.47591
0.705051
1.89517
0.564799
1.45047
0.46008
1.10956
0.38206
0.848013
0.324034
0.647318
0.28093
0.493407
0.248929
0.37553
0.225157
0.285448
0.216656
0.207489
21.7855
99.5582
16.7498
74.1387
12.8432
55.4518
9.832
41.6208
7.52085
31.3345
5.75187
23.6543
4.40056
17.9002
3.36959
13.5766
2.5839
10.3187
1.98583
7.85715
1.53133
5.99209
1.18673
4.57514
0.92628
3.49586
0.730136
2.67206
0.582959
2.04235
0.472865
1.56056
0.39071
1.19171
0.329518
0.909203
0.284006
0.692828
0.25019
0.527223
0.22507
0.400648
0.206401
0.304117
0.230546
0.192509
16.2208
103.734
12.7453
77.6143
9.93116
58.266
7.69688
43.8551
5.94488
33.0865
4.5825
25.0167
3.52935
18.9533
2.71839
14.3876
2.09585
10.9413
1.61919
8.33382
1.25526
6.35603
0.978341
4.85206
0.768522
3.70568
0.610284
2.8303
0.49147
2.16116
0.402552
1.64948
0.336144
1.25812
0.286608
0.958738
0.24969
0.729745
0.222191
0.55472
0.20171
0.42113
0.18645
0.319375
0.241932
0.175062
12.1784
106.205
9.86223
79.9305
7.84969
60.2786
6.17941
45.5254
4.82957
34.4363
3.75745
26.0888
2.91587
19.7949
2.26021
15.0432
1.75231
11.4492
1.36058
8.72555
1.05971
6.6569
0.829663
5.0821
0.654707
3.88064
0.522409
2.96259
0.422883
2.26069
0.348264
1.72409
0.292401
1.31398
0.250588
1.00055
0.219291
0.76104
0.195866
0.578144
0.178331
0.438663
0.165207
0.332499
0.251771
0.155367
9.27707
107.397
7.81662
81.391
6.38682
61.7084
5.12091
46.7913
4.05588
35.5014
3.18723
26.9574
2.49266
20.4895
1.9441
15.5918
1.51476
11.8785
1.18088
9.05944
0.922705
6.91507
0.72419
5.28062
0.572519
4.03231
0.457415
3.0777
0.370569
2.34753
0.305254
1.78941
0.256152
1.36308
0.219189
1.03751
0.191332
0.788896
0.170322
0.599153
0.154486
0.454499
0.142545
0.344439
0.26077
0.133545
6.7623
109.708
5.07237
83.081
3.82199
62.9587
2.89435
47.7189
2.20154
36.1942
1.68173
27.4772
1.29003
20.8812
0.993477
15.8884
0.768278
12.1037
0.59684
9.23087
0.466272
7.04564
0.366981
5.37991
0.291804
4.10749
0.235239
3.13426
0.192937
2.38984
0.161391
1.82095
0.137832
1.38663
0.120156
1.05518
0.106828
0.802222
0.0967399
0.609239
0.0890891
0.462148
0.083301
0.350227
0.265173
0.0788973
4.73136
111.335
3.54883
84.2636
2.67639
63.8312
2.03144
48.3638
1.5506
36.675
1.1902
27.8376
0.918583
21.1528
0.712614
16.0943
0.555824
12.2605
0.436065
9.35063
0.344518
7.13719
0.274648
5.44978
0.221611
4.16053
0.181669
3.17421
0.151817
2.41969
0.129564
1.84321
0.112902
1.4033
0.100305
1.06778
0.0906848
0.811841
0.0832833
0.616639
0.0775664
0.467865
0.0731637
0.354628
0.268578
0.0697584
3.21482
112.447
2.41269
85.0657
1.82278
64.4211
1.38855
48.7981
1.06539
36.9982
0.823422
28.0796
0.640887
21.3353
0.502066
16.2331
0.395946
12.3666
0.314433
9.43214
0.251726
7.19989
0.203557
5.49795
0.166804
4.19728
0.139042
3.20196
0.118274
2.44046
0.102765
1.85872
0.091076
1.41498
0.0821053
1.07675
0.0750984
0.818845
0.0695587
0.622177
0.065154
0.472268
0.061675
0.358107
0.271334
0.0589173
2.09363
113.173
1.57406
85.5853
1.19323
64.8019
0.914323
49.077
0.707148
37.2053
0.552122
28.2346
0.434879
21.4526
0.345221
16.3228
0.276152
12.4357
0.222564
9.48573
0.180865
7.24159
0.148447
5.53037
0.123451
4.22228
0.104431
3.22099
0.0901405
2.45475
0.0794111
1.86945
0.0712158
1.42318
0.0647615
1.0832
0.0595328
0.824073
0.0552252
0.626484
0.0516588
0.475833
0.0487421
0.361022
0.273718
0.0463576
1.27438
113.614
0.962345
85.8974
0.734252
65.03
0.568241
49.243
0.445125
37.3285
0.352941
28.3268
0.282794
21.5227
0.228546
16.3771
0.186118
12.4781
0.152567
9.51928
0.12589
7.26827
0.104676
5.55158
0.0879836
4.23897
0.0750869
3.23388
0.0653004
2.46454
0.0578738
1.87688
0.0520774
1.42898
0.0473309
1.08795
0.0432833
0.828118
0.0397646
0.63
0.0367061
0.47889
0.0341033
0.363624
0.275916
0.0319033
0.685989
113.848
0.52404
86.0593
0.405559
65.1485
0.320042
49.3285
0.256607
37.3919
0.208866
28.3745
0.171929
21.5597
0.142592
16.4064
0.118852
12.5018
0.0993076
9.53882
0.0830712
7.2845
0.0695741
5.56508
0.058532
4.25002
0.0497442
3.24267
0.0429438
2.47134
0.0376905
1.88213
0.0334616
1.43321
0.0298149
1.0916
0.0265017
0.83143
0.0234402
0.63306
0.0206415
0.481687
0.0181618
0.366103
0.278075
0.0160016
0.268021
113.93
0.213599
86.1138
0.172822
65.1893
0.14386
49.3575
0.122109
37.4136
0.105244
28.3914
0.0912905
21.5736
0.0791416
16.4185
0.0682475
12.5127
0.0582819
9.54879
0.0491215
7.29366
0.0407789
5.57342
0.0334301
4.25736
0.0272593
3.24884
0.0223193
2.47628
0.0184053
1.88605
0.0151391
1.43647
0.0121607
1.09457
0.00927264
0.834316
0.00644604
0.635884
0.00373819
0.484394
0.00126026
0.368579
0.280293
-0.00095918
-0.0189225
113.904
0.00139369
86.0935
0.0137587
65.1769
0.0229682
49.3482
0.0290775
37.4075
0.0326719
28.3878
0.0338493
21.5724
0.0329519
16.4194
0.0304067
12.5153
0.0266092
9.55258
0.0219319
7.29834
0.0167692
5.57858
0.0116087
4.26252
0.00691408
3.25353
0.00298538
2.48021
-0.000199837
1.88924
-0.00292635
1.4392
-0.00551831
1.09716
-0.00816606
0.836962
-0.0108763
0.638593
-0.0135704
0.487087
-0.0160962
0.371104
0.282601
-0.0184057
-0.210631
113.803
-0.139443
86.0223
-0.0917692
65.1292
-0.0577075
49.3142
-0.0337493
37.3836
-0.017225
28.3713
-0.00658455
21.5618
-0.000512375
16.4134
0.00205116
12.5127
0.00196531
9.55266
-9.80234e-05
7.3004
-0.00350739
5.58198
-0.00757234
4.26659
-0.0116256
3.25758
-0.0151691
2.48375
-0.0180745
1.89214
-0.0205591
1.44168
-0.0229403
1.09954
-0.0254375
0.839457
-0.0280692
0.641223
-0.0307542
0.489771
-0.0333348
0.373684
0.284986
-0.035721
-0.331196
113.651
-0.226987
85.9181
-0.157302
65.0595
-0.108307
49.2652
-0.07395
37.3492
-0.0500877
28.3474
-0.0341886
21.5459
-0.0243186
16.4035
-0.0190427
12.5074
-0.0172299
9.55085
-0.0180559
7.30122
-0.0207635
5.58469
-0.0245438
4.27037
-0.0285804
3.26162
-0.0322043
2.48738
-0.0351482
1.89509
-0.037574
1.44411
-0.039818
1.10179
-0.042156
0.841794
-0.044654
0.64372
-0.0472478
0.492365
-0.0498041
0.376239
0.28737
-0.0521891
-0.400089
113.466
-0.275828
85.7938
-0.193761
64.9775
-0.137001
49.2084
-0.0976231
37.3098
-0.0704498
28.3202
-0.0523188
21.5278
-0.0409339
16.3921
-0.03467
12.5012
-0.0322632
9.54844
-0.0328442
7.3018
-0.0356107
5.58745
-0.0396978
4.27445
-0.0441785
3.2661
-0.0482257
2.49142
-0.0514299
1.89829
-0.0538949
1.44658
-0.0559905
1.10388
-0.0580718
0.843873
-0.0602846
0.645932
-0.0626127
0.494692
-0.0649687
0.378595
0.289593
-0.0671927
-0.431793
113.259
-0.296835
85.6589
-0.209305
64.8899
-0.149923
49.149
-0.109375
37.2693
-0.081766
28.2926
-0.0635608
21.5096
-0.0522859
16.3808
-0.0462595
12.4952
-0.044185
9.54636
-0.0452263
7.30284
-0.0485968
5.59082
-0.0534233
4.27927
-0.0586958
3.27137
-0.0634309
2.49615
-0.0670586
1.90192
-0.0696057
1.44912
-0.0714775
1.10575
-0.073127
0.845522
-0.0748125
0.647616
-0.0766024
0.496482
-0.0784751
0.380467
0.291393
-0.0802763
-0.439208
113.04
-0.2997
85.5193
-0.211229
64.8015
-0.152572
49.0904
-0.113344
37.23
-0.0871563
28.2664
-0.0702722
21.4927
-0.0601593
16.3707
-0.0551648
12.4902
-0.054021
9.54521
-0.0559769
7.30479
-0.0603032
5.59514
-0.0661547
4.28512
-0.0724589
3.27767
-0.0780693
2.50176
-0.0822255
1.90607
-0.0848434
1.45174
-0.0863543
1.10726
-0.0873223
0.846488
-0.0881454
0.648438
-0.0890112
0.497346
-0.0899779
0.381433
0.292365
-0.0909504
-0.427417
112.815
-0.288234
85.3802
-0.20241
64.7157
-0.147143
49.0351
-0.111216
37.1941
-0.0879083
28.2431
-0.0734266
21.4782
-0.065279
16.3626
-0.0619155
12.4868
-0.0621505
9.54545
-0.0653615
7.308
-0.0709122
5.60069
-0.0780212
4.29223
-0.0855742
3.28522
-0.0922547
2.50844
-0.0970698
1.91088
-0.0997717
1.45444
-0.100789
1.10828
-0.100801
0.846498
-0.100369
0.648005
-0.0998429
0.49682
-0.099409
0.380997
0.292025
-0.0990699
-0.401665
112.59
-0.266323
85.2448
-0.185725
64.635
-0.135754
48.9851
-0.104556
37.1629
-0.0852263
28.2238
-0.0739957
21.467
-0.0684628
16.357
-0.0672156
12.4855
-0.0691803
9.54741
-0.0738978
7.31272
-0.0808588
5.60765
-0.0893851
4.30075
-0.0983511
3.29418
-0.106273
2.51636
-0.111887
1.91649
-0.114722
1.45727
-0.115157
1.10871
-0.113983
0.845322
-0.111969
0.64599
-0.109687
0.494538
-0.107463
0.378772
0.289933
-0.105373
-0.582025
112.412
-0.451309
85.1141
-0.355131
64.5389
-0.283354
48.9133
-0.22973
37.1093
-0.189771
28.1838
-0.160334
21.4375
-0.139161
16.3359
-0.124656
12.471
-0.115673
9.53842
-0.111556
7.3086
-0.111761
5.60785
-0.115612
4.3046
-0.121899
3.30046
-0.128784
2.52324
-0.134285
1.92199
-0.137065
1.46005
-0.136868
1.10851
-0.1343
0.842752
-0.130294
0.641985
-0.125682
0.489925
-0.121008
0.374096
0.28548
-0.116557
-0.566257
112.245
-0.442652
84.9905
-0.351558
64.4478
-0.28347
48.8453
-0.232527
37.0584
-0.194517
28.1458
-0.166496
21.4095
-0.146349
16.3157
-0.132582
12.4573
-0.124125
9.52996
-0.120397
7.30487
-0.120936
5.60839
-0.125168
4.30882
-0.131955
3.30724
-0.139428
2.53071
-0.145401
1.92796
-0.148232
1.46288
-0.147427
1.1077
-0.143557
0.838879
-0.137726
0.636154
-0.131052
0.48325
-0.124394
0.367436
0.279285
-0.118201
-0.550756
112.087
-0.433822
84.8736
-0.347488
64.3614
-0.282847
48.7806
-0.234406
37.0099
-0.198212
28.1096
-0.171508
21.3828
-0.15231
16.2965
-0.139218
12.4442
-0.131232
9.52197
-0.127838
7.30147
-0.128656
5.6092
-0.133221
4.31338
-0.1405
3.31452
-0.148649
2.53885
-0.155336
1.93465
-0.158621
1.46617
-0.157662
1.10674
-0.152861
0.834075
-0.145614
0.628907
-0.137591
0.475226
-0.129907
0.35975
0.272213
-0.122837
-0.535574
111.938
-0.424927
84.7629
-0.343072
64.2796
-0.281672
48.7192
-0.235579
36.9638
-0.201086
28.0751
-0.175608
21.3573
-0.157289
16.2782
-0.144812
12.4317
-0.137244
9.5144
-0.13413
7.29835
-0.135171
5.61024
-0.140025
4.31824
-0.147796
3.32229
-0.156734
2.54779
-0.164421
1.94233
-0.168597
1.47034
-0.16799
1.10613
-0.162994
0.829077
-0.155602
0.621514
-0.147687
0.46731
-0.139872
0.351932
0.264614
-0.132276
-0.52074
111.797
-0.416039
84.6582
-0.338417
64.202
-0.280078
48.6609
-0.236196
36.9199
-0.203301
28.0422
-0.178971
21.333
-0.161468
16.2607
-0.149552
12.4198
-0.142353
9.5072
-0.139467
7.29546
-0.140676
5.61144
-0.145771
4.32332
-0.154031
3.33054
-0.163865
2.55761
-0.172848
1.95131
-0.17844
1.47593
-0.179123
1.10681
-0.175521
0.825471
-0.169579
0.615572
-0.162295
0.460024
-0.154147
0.343782
0.256613
-0.146149
-0.506274
111.664
-0.407213
84.5591
-0.333602
64.1283
-0.27816
48.6054
-0.236369
36.8781
-0.204981
28.0108
-0.181728
21.3097
-0.164984
16.2439
-0.153582
12.4084
-0.146706
9.50032
-0.144
7.29275
-0.145323
5.61276
-0.150605
4.3286
-0.159337
3.33927
-0.170162
2.56844
-0.180758
1.9619
-0.188492
1.48366
-0.191728
1.11004
-0.190544
0.824284
-0.185538
0.610567
-0.177669
0.452154
-0.169221
0.335332
0.248991
-0.161603
-0.492185
111.539
-0.398484
84.4655
-0.328685
64.0585
-0.275993
48.5527
-0.236182
36.8383
-0.206218
27.9809
-0.183979
21.2875
-0.167945
16.2279
-0.157012
12.3975
-0.150419
9.49372
-0.147845
7.29018
-0.149225
5.61414
-0.154634
4.33401
-0.163802
3.34843
-0.175688
2.58032
-0.188228
1.97444
-0.1988
1.49423
-0.205151
1.11638
-0.205756
0.824885
-0.200656
0.605466
-0.193016
0.444512
-0.18598
0.328295
0.242199
-0.179191
-0.478477
111.421
-0.38988
84.3768
-0.323709
63.9924
-0.273632
48.5027
-0.235701
36.8004
-0.207088
27.9523
-0.185804
21.2662
-0.170433
16.2125
-0.159931
12.387
-0.153582
9.48737
-0.151096
7.28769
-0.152476
5.61552
-0.157941
4.33947
-0.167488
3.35798
-0.180465
2.59329
-0.195167
1.98914
-0.208848
1.50791
-0.21827
1.1258
-0.221403
0.828014
-0.220112
0.604177
-0.217814
0.442213
-0.214037
0.324516
0.235659
-0.207501
-0.46515
111.31
-0.381422
84.2931
-0.31871
63.9297
-0.271122
48.4551
-0.234981
36.7643
-0.20765
27.9249
-0.187269
21.2458
-0.172519
16.1978
-0.162411
12.3768
-0.15627
9.48122
-0.153829
7.28524
-0.155149
5.61683
-0.160588
4.3449
-0.170428
3.36781
-0.184448
2.60731
-0.201317
2.006
-0.218158
1.52474
-0.231841
1.13948
-0.24246
0.83863
-0.252445
0.614161
-0.259288
0.449055
-0.258548
0.323775
0.229423
-0.252316
-0.452204
111.206
-0.373126
84.214
-0.313714
63.8702
-0.268502
48.4099
-0.234065
36.7298
-0.207952
27.8988
-0.188427
21.2263
-0.174259
16.1836
-0.164512
12.3671
-0.158545
9.47526
-0.156107
7.2828
-0.157306
5.61803
-0.162627
4.35022
-0.172637
3.37782
-0.187552
2.62222
-0.206432
2.02488
-0.226844
1.54516
-0.247718
1.16035
-0.271301
0.86221
-0.294752
0.637613
-0.307759
0.462061
-0.308015
0.324031
0.224447
-0.303043
-0.439634
111.108
-0.365002
84.1394
-0.308746
63.814
-0.265801
48.3669
-0.232991
36.697
-0.208038
27.8739
-0.189323
21.2076
-0.175703
16.17
-0.166286
12.3577
-0.160462
9.46943
-0.157985
7.28032
-0.159
5.61904
-0.1641
4.35532
-0.174116
3.38783
-0.189682
2.63778
-0.210375
2.04557
-0.235124
1.5699
-0.265607
1.19083
-0.302307
0.898909
-0.332917
0.668222
-0.34428
0.473423
-0.341314
0.321064
0.218664
-0.335533
-0.427437
111.016
-0.357062
84.069
-0.303823
63.7607
-0.263047
48.3261
-0.23179
36.6658
-0.207944
27.85
-0.189999
21.1896
-0.176892
16.1569
-0.167777
12.3486
-0.162068
9.46372
-0.159514
7.27777
-0.160281
5.6198
-0.165044
4.36008
-0.174864
3.39765
-0.190758
2.65367
-0.213035
2.06785
-0.242548
1.59941
-0.282254
1.23053
-0.326569
0.943222
-0.355151
0.696805
-0.358252
0.476523
-0.348413
0.311225
0.20912
-0.338872
-0.415606
110.93
-0.349311
84.0027
-0.298962
63.7104
-0.260262
48.2874
-0.230492
36.636
-0.207701
27.8272
-0.190488
21.1724
-0.177865
16.1443
-0.169026
12.3397
-0.163403
9.45809
-0.160735
7.27509
-0.161189
5.62025
-0.165493
4.36438
-0.174878
3.40703
-0.190717
2.66951
-0.214197
2.09132
-0.247866
1.63308
-0.293491
1.27615
-0.338026
0.987756
-0.358076
0.716854
-0.350435
0.468881
-0.332821
0.29361
0.194947
-0.31865
-0.404138
110.849
-0.341756
83.9403
-0.294178
63.6628
-0.257467
48.2507
-0.229121
36.6076
-0.20734
27.8055
-0.190824
21.1559
-0.178656
16.1321
-0.170069
12.3311
-0.164508
9.45253
-0.16169
7.27227
-0.161767
5.62033
-0.165481
4.36809
-0.17417
3.41572
-0.189507
2.68485
-0.213519
2.11534
-0.249592
1.66915
-0.296449
1.32301
-0.335438
1.02674
-0.345059
0.726477
-0.328318
0.452139
-0.304645
0.269937
0.176914
-0.286615
-0.393026
110.774
-0.334401
83.8817
-0.289482
63.6179
-0.25468
48.2159
-0.2277
36.5807
-0.206885
27.7846
-0.191034
21.1401
-0.179296
16.1204
-0.17094
12.3228
-0.165417
9.447
-0.162416
7.26927
-0.162053
5.61996
-0.165043
4.37108
-0.172756
3.42343
-0.187077
2.69916
-0.210633
2.13889
-0.246613
1.70513
-0.29025
1.36664
-0.320784
1.05728
-0.321612
0.727304
-0.299598
0.430125
-0.272511
0.24285
0.156034
-0.251632
-0.382264
110.704
-0.327251
83.8267
-0.284887
63.5755
-0.25192
48.183
-0.226251
36.555
-0.206362
27.7647
-0.191146
21.1248
-0.179815
16.109
-0.171668
12.3146
-0.166162
9.44149
-0.162948
7.26606
-0.162086
5.6191
-0.164219
4.37321
-0.170671
3.42988
-0.183399
2.71189
-0.205261
2.16075
-0.238457
1.73832
-0.275521
1.40371
-0.297101
1.07886
-0.292545
0.72275
-0.269956
0.407534
-0.242859
0.215754
0.133574
-0.2204
-0.371847
110.639
-0.320309
83.7752
-0.280403
63.5356
-0.2492
48.1517
-0.224792
36.5306
-0.205793
27.7457
-0.191183
21.1102
-0.180237
16.0981
-0.172281
12.3067
-0.166773
9.43598
-0.163318
7.2626
-0.161901
5.61768
-0.163051
4.37436
-0.167959
3.43478
-0.178484
2.72241
-0.197308
2.17957
-0.22526
1.76627
-0.253614
1.43206
-0.266999
1.09224
-0.260492
0.716241
-0.241231
0.388273
-0.21698
0.191505
0.110518
-0.193924
-0.361769
110.579
-0.313578
83.727
-0.276039
63.4981
-0.246536
48.1222
-0.223341
36.5074
-0.205198
27.7276
-0.19117
21.0962
-0.180587
16.0875
-0.172806
12.2989
-0.16728
9.43046
-0.163559
7.25887
-0.161539
5.61566
-0.161587
4.37441
-0.164682
3.43788
-0.172397
2.73013
-0.186891
2.19407
-0.207622
1.78701
-0.226085
1.45053
-0.232274
1.09843
-0.226195
0.710164
-0.212765
0.374843
-0.193925
0.172666
0.0885776
-0.171983
-0.352023
110.523
-0.307061
83.682
-0.271805
63.4628
-0.24394
48.0944
-0.221917
36.4854
-0.204596
27.7103
-0.191126
21.0827
-0.180891
16.0772
-0.173269
12.2913
-0.167709
9.42489
-0.163703
7.25486
-0.161035
5.61299
-0.159878
4.37325
-0.16092
3.43892
-0.16527
2.73448
-0.174326
2.20312
-0.186466
1.79914
-0.194597
1.45866
-0.194399
1.09823
-0.190156
0.705919
-0.18465
0.369337
-0.174716
0.162733
0.0708905
-0.157025
-0.342605
110.472
-0.30076
83.6402
-0.267708
63.4298
-0.241427
48.0681
-0.220534
36.4645
-0.204008
27.6938
-0.191074
21.0698
-0.181169
16.0673
-0.173693
12.2838
-0.168088
9.41929
-0.163778
7.25055
-0.16043
5.60964
-0.157981
4.3708
-0.156769
3.43771
-0.1573
2.73501
-0.16009
2.20592
-0.162875
1.80193
-0.160794
1.45658
-0.154745
1.09218
-0.152168
0.703344
-0.153898
0.371068
-0.153008
0.161847
0.059667
-0.141781
-0.333508
110.425
-0.294676
83.6013
-0.263757
63.3989
-0.239007
48.0433
-0.219208
36.4447
-0.20345
27.678
-0.191033
21.0574
-0.181442
16.0578
-0.174101
12.2765
-0.16844
9.41362
-0.163815
7.24592
-0.159761
5.60558
-0.155956
4.36699
-0.152337
3.43409
-0.148732
2.73141
-0.144747
2.20193
-0.137947
1.79513
-0.125985
1.44462
-0.114106
1.08031
-0.111595
0.700832
-0.118599
0.378073
-0.126355
0.169605
0.0604744
-0.127157
-0.324727
110.383
-0.288814
83.5654
-0.259959
63.37
-0.236693
48.0201
-0.217954
36.4259
-0.202939
27.663
-0.191022
21.0455
-0.181733
16.0485
-0.174516
12.2692
-0.168792
9.4079
-0.163842
7.24098
-0.159069
5.60081
-0.153869
4.3618
-0.14775
3.42798
-0.139846
2.72351
-0.128903
2.19099
-0.112689
1.77892
-0.0912916
1.42323
-0.0727163
1.06173
-0.0668983
0.695015
-0.0761907
0.387366
-0.0916115
0.185027
0.0687785
-0.0999095
-0.316257
110.344
-0.283173
83.5323
-0.256322
63.3432
-0.234496
47.9983
-0.216786
36.4082
-0.202493
27.6487
-0.191058
21.034
-0.18206
16.0395
-0.174959
12.2621
-0.169166
9.4021
-0.163888
7.23569
-0.15839
5.59531
-0.151783
4.35519
-0.143134
3.41933
-0.130927
2.7113
-0.113132
2.17319
-0.0878858
1.75367
-0.0576207
1.39296
-0.0314235
1.03554
-0.019262
0.682853
-0.0254325
0.393537
-0.0425484
0.202144
0.0884569
-0.0622211
-0.308092
110.309
-0.277756
83.502
-0.252852
63.3182
-0.232427
47.9778
-0.215717
36.3915
-0.202126
27.6351
-0.191161
21.0231
-0.182443
16.0307
-0.17545
12.2551
-0.169585
9.39624
-0.163979
7.23009
-0.157762
5.58909
-0.149766
4.3472
-0.138629
3.40819
-0.122287
2.69496
-0.0980544
2.14896
-0.0644949
1.72011
-0.0260688
1.35454
0.00754041
1.00193
0.025774
0.66462
0.0246947
0.394618
0.0112088
0.215632
0.108825
-0.00915513
-0.300227
110.278
-0.272565
83.4744
-0.249555
63.2952
-0.230494
47.9588
-0.214759
36.3758
-0.201853
27.6222
-0.191344
21.0126
-0.182899
16.0223
-0.176012
12.2483
-0.170075
9.3903
-0.164147
7.22416
-0.15723
5.58217
-0.147889
4.33785
-0.134355
3.39466
-0.114121
2.67473
-0.0839546
2.1188
-0.0429557
1.67911
0.00273004
1.30886
0.0425702
0.962094
0.0655537
0.641636
0.0696803
0.390491
0.0621529
0.223163
0.122817
0.0481642
-0.282631
110.237
-0.251403
83.4431
-0.227782
63.2716
-0.2095
47.9405
-0.195093
36.3614
-0.183621
27.6107
-0.174431
21.0034
-0.167087
16.015
-0.161057
12.2422
-0.155736
9.38498
-0.150194
7.21862
-0.143392
5.57537
-0.133809
4.32827
-0.119513
3.38037
-0.0980097
2.65323
-0.0661902
2.08698
-0.0236564
1.63658
0.0231929
1.26201
0.0638682
0.921422
0.0883133
0.617192
0.0960927
0.382713
0.0937212
0.225532
0.130595
0.0859479
-0.224864
110.205
-0.200278
83.4185
-0.18168
63.253
-0.167286
47.9261
-0.155923
36.35
-0.146851
27.6017
-0.139549
20.9961
-0.133671
16.0091
-0.128785
12.2373
-0.124391
9.38058
-0.119714
7.21393
-0.11383
5.56949
-0.105422
4.31986
-0.0928215
3.36776
-0.074116
2.63452
-0.047211
2.06008
-0.0121297
1.6015
0.0266015
1.22328
0.0608353
0.887189
0.0826117
0.595415
0.0917105
0.373614
0.0927862
0.224456
0.133664
0.0897151
-0.178878
110.18
-0.159505
83.3992
-0.14485
63.2384
-0.133508
47.9148
-0.124543
36.341
-0.117368
27.5945
-0.111566
20.9903
-0.106866
16.0044
-0.102918
12.2334
-0.099314
9.37698
-0.0954165
7.21004
-0.0904346
5.56451
-0.0832695
4.3127
-0.0725459
3.35705
-0.0568345
2.61882
-0.0348253
2.03807
-0.00672739
1.5734
0.0244284
1.19213
0.0523567
0.859263
0.0707944
0.57698
0.0795673
0.36484
0.0819988
0.222024
0.134369
0.0812933
-0.142257
110.16
-0.126962
83.3839
-0.115393
63.2268
-0.106442
47.9058
-0.0993579
36.334
-0.0936768
27.5888
-0.0890652
20.9857
-0.0853067
16.0006
-0.0821227
12.2302
-0.0791797
9.37403
-0.0759619
7.20681
-0.0718056
5.56035
-0.0658138
4.30671
-0.0568792
3.34811
-0.0439345
2.60587
-0.0262056
2.02034
-0.00398345
1.55118
0.0206931
1.16745
0.0430568
0.8369
0.0582865
0.56175
0.0661534
0.356975
0.0689983
0.219178
0.133924
0.0694427
-0.113106
110.145
-0.101011
83.3718
-0.091865
63.2176
-0.0847899
47.8987
-0.0791857
36.3284
-0.074683
27.5843
-0.0710154
20.982
-0.0680104
15.9976
-0.0654453
12.2276
-0.0630506
9.37163
-0.0604114
7.20418
-0.0569788
5.55692
-0.0520307
4.30176
-0.0446856
3.34077
-0.0341466
2.59534
-0.0199754
2.00617
-0.00250414
1.53371
0.0168534
1.1481
0.034558
0.819198
0.0469683
0.549343
0.0537705
0.350172
0.0566125
0.216338
0.132967
0.0575703
-0.0898684
110.132
-0.0802603
83.3622
-0.0729958
63.2104
-0.0673788
47.8931
-0.0629274
36.3239
-0.0593466
27.5807
-0.0564218
20.9791
-0.0540149
15.9952
-0.0519478
12.2256
-0.0500034
9.36969
-0.0478505
7.20202
-0.0450409
5.5541
-0.0410008
4.29772
-0.0350359
3.3348
-0.0265543
2.58685
-0.0153248
1.99494
-0.00169905
1.52008
0.0133253
1.13308
0.0271816
0.805342
0.0371715
0.539354
0.0429176
0.344428
0.0455858
0.213669
0.131858
0.0466955
-0.0715808
110.122
-0.0640818
83.3547
-0.0584133
63.2047
-0.0540308
47.8887
-0.0505522
36.3204
-0.0477458
27.5779
-0.0454425
20.9768
-0.0435342
15.9933
-0.0418805
12.2239
-0.0403073
9.36811
-0.0385487
7.20026
-0.0362367
5.55179
-0.0329108
4.2944
-0.0280166
3.32991
-0.0211023
2.57994
-0.0120524
1.9859
-0.00121372
1.50924
0.0106714
1.12119
0.0216899
0.794326
0.0298158
0.531231
0.0346573
0.339587
0.0370776
0.21125
0.130802
0.0381331
-0.0566947
110.115
-0.0506019
83.3486
-0.0459972
63.2001
-0.0424409
47.8852
-0.0396216
36.3176
-0.0373497
27.5756
-0.0354858
20.9749
-0.0339403
15.9917
-0.0325997
12.2226
-0.0313244
9.36684
-0.0299054
7.19884
-0.0280507
5.54993
-0.0254051
4.29175
-0.0215449
3.32605
-0.0161401
2.57454
-0.00915848
1.97891
-0.000921733
1.501
0.00803295
1.11224
0.0163859
0.785973
0.0227205
0.524897
0.0266431
0.335666
0.0287427
0.209151
0.129898
0.0296475
-0.0476748
110.103
-0.0388446
83.3397
-0.0319468
63.1932
-0.0264863
47.8797
-0.0220737
36.3132
-0.0184478
27.572
-0.0154002
20.9719
-0.0127862
15.9891
-0.0104479
12.2202
-0.00820658
9.3646
-0.0058103
7.19644
-0.00293055
5.54706
0.000813508
4.28801
0.00581164
3.32105
0.0122672
2.56809
0.0200599
1.97112
0.0286524
1.49241
0.0370056
1.10389
0.0434075
0.779573
0.0467903
0.521517
0.0474832
0.334974
0.0466071
0.210029
0.13171
0.0447963
-0.0500542
110.092
-0.0407846
83.3305
-0.0335449
63.186
-0.0278153
47.874
-0.0231848
36.3086
-0.019377
27.5682
-0.0161718
20.9686
-0.0134159
15.9864
-0.010943
12.2178
-0.00856569
9.36221
-0.0060192
7.19389
-0.00295915
5.54399
0.00100478
4.28404
0.00626832
3.31579
0.0130204
2.56133
0.0211098
1.96303
0.0299892
1.48352
0.0386114
1.09527
0.0452
0.772985
0.0486758
0.518042
0.0494477
0.334204
0.048631
0.210846
0.133413
0.0469279
-0.0525519
110.079
-0.0428212
83.3207
-0.0352224
63.1784
-0.0292107
47.868
-0.0243515
36.3037
-0.0203531
27.5642
-0.0169824
20.9653
-0.0140773
15.9835
-0.0114628
12.2152
-0.00894203
9.35969
-0.00623758
7.19119
-0.00298845
5.54075
0.00120348
4.27985
0.00674137
3.31025
0.0137984
2.55428
0.022186
1.95465
0.0313472
1.47436
0.0402156
1.0864
0.046968
0.766234
0.0505337
0.514479
0.0513821
0.333356
0.0506215
0.211608
0.135002
0.049033
-0.0551738
110.066
-0.0449588
83.3105
-0.0369833
63.1704
-0.0306757
47.8617
-0.0255767
36.2986
-0.0213783
27.56
-0.0178339
20.9617
-0.0147719
15.9804
-0.0120083
12.2124
-0.00933619
9.35702
-0.00646539
7.18831
-0.00301774
5.53729
0.00141135
4.27542
0.00723289
3.30443
0.0146025
2.54691
0.0232872
1.94596
0.0327207
1.46493
0.0418041
1.07732
0.0486882
0.759351
0.0523319
0.510837
0.0532403
0.33245
0.0525205
0.212328
0.136494
0.0510298
-0.0579257
110.053
-0.0472028
83.2998
-0.0388319
63.162
-0.0322137
47.855
-0.0268633
36.2933
-0.022455
27.5556
-0.0187284
20.958
-0.0155014
15.9772
-0.0125806
12.2095
-0.00974879
9.35419
-0.00670267
7.18527
-0.00304663
5.53364
0.00162958
4.27075
0.00774321
3.29832
0.0154315
2.53922
0.0244098
1.93699
0.0341013
1.45524
0.0433649
1.06806
0.0503449
0.752372
0.0540402
0.507145
0.0549854
0.331506
0.0542884
0.213026
0.137923
0.0528599
-0.0608147
110.038
-0.0495583
83.2885
-0.0407724
63.1533
-0.0338285
47.8481
-0.0282143
36.2876
-0.0235859
27.551
-0.0196679
20.9541
-0.0162674
15.9738
-0.0131809
12.2064
-0.0101805
9.35118
-0.00694945
7.18203
-0.00307481
5.52976
0.00185916
4.26581
0.00827225
3.29191
0.0162837
2.53121
0.0255511
1.92772
0.0354827
1.44531
0.0448892
1.05866
0.051926
0.745336
0.0556344
0.503439
0.0565959
0.330546
0.0559046
0.213719
0.139324
0.0545043
-0.0638468
110.023
-0.052031
83.2767
-0.0428095
63.144
-0.0355237
47.8408
-0.0296329
36.2818
-0.0247737
27.5461
-0.0206546
20.95
-0.0170716
15.9702
-0.0138105
12.2031
-0.010632
9.34801
-0.00720568
7.17861
-0.00310184
5.52566
0.00210105
4.26061
0.00882023
3.28519
0.0171573
2.52288
0.0267093
1.91817
0.0368602
1.43516
0.0463703
1.04915
0.0534217
0.738286
0.0571059
0.499758
0.0580644
0.329589
0.0573634
0.214421
0.140722
0.0559666
-0.0670299
110.008
-0.0546264
83.2643
-0.0449477
63.1344
-0.0373035
47.8332
-0.0311225
36.2756
-0.026021
27.541
-0.0216909
20.9456
-0.0179159
15.9664
-0.0144705
12.1997
-0.011104
9.34464
-0.00747143
7.17497
-0.0031274
5.52131
0.00235625
4.25513
0.00938774
3.27816
0.0180507
2.51421
0.0278828
1.90834
0.0382289
1.42481
0.0478023
1.03958
0.0548231
0.731265
0.0584478
0.496135
0.0593859
0.328653
0.0586664
0.215141
0.142134
0.0572545
-0.0703708
109.991
-0.0573509
83.2513
-0.0471923
63.1242
-0.0391719
47.8252
-0.0326865
36.2691
-0.0273309
27.5357
-0.0227792
20.9411
-0.0188021
15.9624
-0.0151622
12.196
-0.0115973
9.34108
-0.0077468
7.17112
-0.00315119
5.51672
0.00262564
4.24936
0.0099755
3.27081
0.0189633
2.50523
0.0290695
1.89824
0.0395831
1.4143
0.0491778
1.02998
0.0561232
0.724321
0.059656
0.492605
0.0605463
0.327764
0.0598027
0.215886
0.143571
0.0583673
-0.0738777
109.974
-0.0602107
83.2376
-0.0495484
63.1135
-0.0411333
47.8167
-0.0343286
36.2623
-0.0287064
27.53
-0.0239218
20.9363
-0.0197321
15.9582
-0.0158871
12.1922
-0.0121125
9.3373
-0.00803211
7.16704
-0.00317303
5.51186
0.00290958
4.24327
0.010584
3.26314
0.0198945
2.49592
0.0302663
1.88786
0.0409154
1.40365
0.0504874
1.02041
0.0573151
0.717494
0.0607301
0.489193
0.0615399
0.326956
0.060762
0.216665
0.145035
0.0592988
-0.0775585
109.956
-0.0632124
83.2233
-0.0520217
63.1023
-0.0431924
47.8079
-0.0360527
36.2552
-0.0301506
27.5241
-0.0251215
20.9313
-0.0207079
15.9538
-0.0166467
12.1881
-0.0126508
9.3333
-0.0083278
7.16272
-0.0031929
5.50673
0.00320766
4.23687
0.011213
3.25513
0.0208428
2.48629
0.0314668
1.87724
0.0422164
1.3929
0.0517203
1.01091
0.0583888
0.710826
0.0616622
0.485922
0.062369
0.326252
0.061541
0.217495
0.146528
0.0600487
-0.0814224
109.937
-0.0663633
83.2082
-0.0546175
63.0906
-0.0453539
47.7986
-0.0378627
36.2477
-0.0316669
27.5179
-0.0263809
20.926
-0.0217318
15.9492
-0.0174425
12.1839
-0.0132132
9.32907
-0.00863459
7.15814
-0.00321096
5.5013
0.00351869
4.23014
0.0118619
3.24679
0.0218051
2.47635
0.0326615
1.86639
0.0434745
1.38209
0.0528627
1.00153
0.0593273
0.704362
0.0624308
0.482822
0.0630271
0.325657
0.0621365
0.218387
0.148051
0.0606146
-0.0854778
109.916
-0.0696706
83.1924
-0.0573425
63.0783
-0.0476227
47.7889
-0.0397628
36.2398
-0.0332587
27.5114
-0.0277029
20.9204
-0.0228061
15.9443
-0.0182763
12.1793
-0.0138009
9.3246
-0.00895335
7.15329
-0.00322782
5.49558
0.00384086
4.22308
0.0125288
3.23811
0.0227759
2.46611
0.0338386
1.85533
0.0446756
1.37126
0.0538981
0.992304
0.0601101
0.698151
0.0630156
0.479918
0.0634909
0.325184
0.062533
0.219346
0.149604
0.0609807
-0.0897344
109.895
-0.0731419
83.1758
-0.0602025
63.0653
-0.0500043
47.7787
-0.0417575
36.2316
-0.0349298
27.5046
-0.0290905
20.9146
-0.0239331
15.9391
-0.0191501
12.1745
-0.0144152
9.31986
-0.0092852
7.14816
-0.00324443
5.48954
0.00417182
4.21566
0.01321
3.22907
0.0237482
2.45557
0.0349849
1.84409
0.0458022
1.36044
0.0548115
0.983297
0.0607234
0.69224
0.0634128
0.477232
0.0637444
0.324854
0.0627037
0.220388
0.151201
0.0611072