/*--------------------------------*- C++ -*----------------------------------*\
  =========                 |
  \\      /  F ield         | OpenFOAM: The Open Source CFD Toolbox
   \\    /   O peration     | Website:  https://openfoam.org
    \\  /    A nd           | Version:  7
     \\/     M anipulation  |
\*---------------------------------------------------------------------------*/
FoamFile
{
    version     2.0;
    format      ascii;
    class       volVectorField;
    location    "81";
    object      U;
}
// * * * * * * * * * * * * * * * * * * * * * * * * * * * * * * * * * * * * * //

dimensions      [0 1 -1 0 0 0 0];

internalField   nonuniform List<vector> 
12842
(
(15.2194 3.52229 -2.2244e-18)
(15.2198 3.5414 -2.87384e-20)
(15.2187 3.56286 2.32167e-20)
(15.2153 3.58855 -3.34873e-20)
(15.2091 3.62078 3.3591e-19)
(15.1992 3.66195 0)
(15.1846 3.71451 0)
(15.1632 3.781 -9.15998e-21)
(15.1326 3.86395 -2.21828e-19)
(15.0899 3.9657 -1.63345e-20)
(15.0321 4.08817 -2.22408e-21)
(14.9561 4.23266 -4.85678e-20)
(14.8599 4.39941 1.65383e-19)
(14.742 4.58743 7.25945e-20)
(14.6029 4.79432 -9.0549e-20)
(14.4445 5.01595 -2.48891e-19)
(14.2705 5.2465 -2.2082e-19)
(14.0863 5.47883 0)
(13.8983 5.7053 1.79418e-20)
(13.7136 5.91876 1.27329e-19)
(13.5386 6.1137 1.94135e-20)
(13.3787 6.28635 -8.18602e-20)
(13.2382 6.43565 6.13272e-20)
(15.2204 3.52278 1.61692e-18)
(15.2247 3.54207 0)
(15.2278 3.56415 7.69943e-19)
(15.2297 3.59059 -6.69508e-19)
(15.2297 3.62392 -3.28384e-19)
(15.2277 3.66685 0)
(15.2224 3.72222 1.35988e-18)
(15.2121 3.793 0)
(15.1941 3.88207 8.92119e-19)
(15.1652 3.99205 9.63851e-20)
(15.1218 4.12494 3.20516e-20)
(15.0607 4.28184 2.20176e-19)
(14.9791 4.46257 -1.61203e-19)
(14.8754 4.66553 1.04603e-19)
(14.7497 4.88759 0)
(14.6036 5.12391 2.68494e-19)
(14.4403 5.36794 3.11871e-19)
(14.2643 5.61182 -3.34893e-19)
(14.082 5.8473 0)
(13.8999 6.06693 -1.69253e-19)
(13.7252 6.26502 -2.2125e-19)
(13.5633 6.43883 2.14371e-19)
(13.4208 6.58462 -2.0928e-19)
(15.2216 3.52304 0)
(15.2292 3.54191 0)
(15.236 3.56385 6.07882e-19)
(15.2422 3.59019 3.88264e-18)
(15.2481 3.62366 0)
(15.2533 3.6673 0)
(15.257 3.72431 7.59888e-19)
(15.2574 3.79811 -1.69563e-18)
(15.2516 3.89202 -5.13044e-19)
(15.2361 4.00896 -5.0159e-19)
(15.2069 4.15105 -8.95076e-19)
(15.1602 4.31922 -2.17407e-19)
(15.0926 4.51284 -1.60896e-20)
(15.0026 4.72964 -8.22556e-20)
(14.8899 4.96586 0)
(14.756 5.21605 -6.047e-20)
(14.6038 5.47311 7.76537e-20)
(14.4374 5.72862 2.06642e-19)
(14.2624 5.97376 1.64098e-19)
(14.0854 6.20075 -1.31305e-19)
(13.9137 6.40357 1.64094e-19)
(13.7529 6.58057 0)
(13.6117 6.72484 7.46056e-20)
(15.2229 3.52325 9.04624e-20)
(15.2333 3.54121 4.16932e-19)
(15.2431 3.56253 -1.5721e-18)
(15.2532 3.58817 -7.36474e-18)
(15.2642 3.62104 6.9817e-19)
(15.2763 3.66446 -2.82422e-18)
(15.2886 3.72201 1.4117e-19)
(15.2993 3.79762 1.68385e-18)
(15.3055 3.89505 3.03756e-18)
(15.3033 4.01762 -1.66205e-18)
(15.288 4.16759 2.36346e-18)
(15.2554 4.3458 -1.79177e-19)
(15.2017 4.55111 2.33329e-19)
(15.1251 4.7806 5.87773e-19)
(15.0254 5.02981 -2.07727e-20)
(14.9042 5.29284 2.68079e-20)
(14.7641 5.56221 -1.24316e-20)
(14.6086 5.82914 -1.12978e-21)
(14.4428 6.08431 -9.6889e-20)
(14.2728 6.31969 6.43109e-20)
(14.1066 6.52869 -3.88355e-20)
(13.949 6.71083 -4.27267e-20)
(13.8115 6.85563 1.1107e-19)
(15.2243 3.52345 -3.23756e-20)
(15.2368 3.54015 0)
(15.2492 3.56053 3.58749e-19)
(15.2625 3.58502 2.75027e-18)
(15.2782 3.61662 2.74599e-19)
(15.2966 3.65897 7.95737e-18)
(15.317 3.71598 6.19459e-19)
(15.3378 3.79216 -5.50509e-18)
(15.3557 3.89175 -3.39495e-18)
(15.3665 4.01855 2.06134e-18)
(15.3653 4.17507 -2.95522e-18)
(15.3468 4.36206 -1.85766e-18)
(15.3071 4.57791 3.4987e-19)
(15.2441 4.81894 -1.50737e-18)
(15.1578 5.07997 -5.39829e-19)
(15.0501 5.35468 3.21141e-19)
(14.9232 5.63546 0)
(14.7801 5.9134 -1.23791e-20)
(14.6253 6.17886 0)
(14.4643 6.42355 9.97743e-20)
(14.3054 6.64019 3.60221e-20)
(14.153 6.82937 1.53493e-20)
(14.0211 6.97665 -3.00834e-20)
(15.2259 3.52363 2.70565e-19)
(15.2397 3.53888 0)
(15.2543 3.55813 0)
(15.2703 3.58111 5.35343e-18)
(15.2901 3.61086 -4.26457e-18)
(15.3142 3.65136 -4.84727e-18)
(15.3422 3.70679 -7.77692e-18)
(15.3726 3.78228 6.13442e-18)
(15.4018 3.88259 0)
(15.4256 4.0121 3.10175e-18)
(15.4382 4.17364 2.83441e-18)
(15.434 4.36801 9.25241e-19)
(15.4084 4.5931 0)
(15.3592 4.8444 9.15043e-19)
(15.2869 5.11594 4.5401e-19)
(15.1934 5.40105 -2.14529e-19)
(15.0812 5.69219 -6.5798e-20)
(14.9523 5.98064 5.24804e-19)
(14.8104 6.2566 0)
(14.6605 6.51158 -1.23993e-19)
(14.5109 6.7373 1.05916e-19)
(14.3654 6.93549 1.18602e-19)
(14.2406 7.08703 -5.64394e-20)
(15.2275 3.52372 -9.43778e-20)
(15.2419 3.53755 0)
(15.2584 3.55556 0)
(15.2765 3.57678 -5.33756e-18)
(15.2996 3.60425 4.94627e-18)
(15.3288 3.6422 -7.03073e-19)
(15.3636 3.69506 4.78303e-18)
(15.4029 3.76864 4.58584e-19)
(15.4431 3.86822 -6.00873e-19)
(15.4797 3.99888 -3.47202e-18)
(15.5065 4.16391 -3.20638e-19)
(15.5171 4.36427 2.22231e-18)
(15.5063 4.59743 0)
(15.4715 4.85796 -1.49343e-18)
(15.4134 5.13891 1.10864e-19)
(15.3347 5.4332 -1.43603e-19)
(15.2378 5.73355 4.62428e-19)
(15.1245 6.03179 -3.01926e-19)
(14.9973 6.31815 -5.10388e-19)
(14.8605 6.58411 -1.10599e-19)
(14.7225 6.8201 2.68769e-20)
(14.5856 7.02905 -1.36642e-19)
(14.4696 7.18636 -8.05218e-20)
(15.2291 3.52384 0)
(15.2435 3.53626 -2.78895e-19)
(15.2617 3.55289 3.55157e-18)
(15.2813 3.57214 -1.37393e-19)
(15.3075 3.597 -5.66229e-18)
(15.3412 3.6319 9.53058e-19)
(15.382 3.68146 -1.83248e-19)
(15.4294 3.75213 -4.19542e-18)
(15.4794 3.84968 0)
(15.5275 3.97983 -4.52623e-18)
(15.5672 4.14639 3.45064e-19)
(15.5918 4.3506 2.17955e-19)
(15.5951 4.58959 0)
(15.5747 4.85707 1.47177e-18)
(15.5316 5.14512 -1.15729e-18)
(15.4694 5.44641 0)
(15.3904 5.7542 -4.58683e-19)
(15.2954 6.06128 0)
(15.1859 6.35806 4.23405e-19)
(15.0647 6.63608 0)
(14.9402 6.88387 -1.94759e-19)
(14.8141 7.10612 1.27905e-19)
(14.7078 7.27118 1.715e-19)
(15.2307 3.52367 0)
(15.2445 3.535 0)
(15.264 3.55061 1.41401e-19)
(15.284 3.5684 -2.5566e-19)
(15.3118 3.59097 6.36048e-18)
(15.3484 3.6229 5.8207e-18)
(15.394 3.66882 0)
(15.4486 3.7358 3.92429e-18)
(15.508 3.83014 0)
(15.5678 3.95845 9.29142e-18)
(15.6207 4.12535 3.09932e-18)
(15.6589 4.33277 -1.94644e-18)
(15.6752 4.57779 -1.76639e-19)
(15.6662 4.85322 0)
(15.6334 5.14952 1.21742e-18)
(15.5819 5.45815 9.51587e-19)
(15.5156 5.7722 -8.68565e-20)
(15.4359 6.08541 6.73264e-19)
(15.3432 6.38891 6.18756e-19)
(15.2386 6.67521 0)
(15.1293 6.93117 1.39523e-19)
(15.0152 7.16405 1.6106e-20)
(14.9191 7.33575 -9.58766e-20)
(15.2326 3.52361 1.8244e-21)
(15.2456 3.53412 3.56875e-18)
(15.2661 3.54874 -3.46183e-18)
(15.2864 3.56528 0)
(15.3157 3.58595 1.25307e-19)
(15.3547 3.61561 3.13534e-19)
(15.4039 3.65888 -5.58989e-18)
(15.4635 3.72329 0)
(15.5296 3.81546 0)
(15.5975 3.94255 -4.72148e-18)
(15.6595 4.10969 -3.30573e-18)
(15.7075 4.3192 -7.23969e-20)
(15.7334 4.5681 1.75802e-18)
(15.7334 4.84846 -6.03369e-20)
(15.7095 5.14965 -1.7763e-19)
(15.6677 5.46242 2.07601e-19)
(15.6131 5.78003 -6.70634e-19)
(15.5471 6.09721 -6.29598e-19)
(15.4693 6.4056 -7.02881e-19)
(15.3796 6.69859 -5.4412e-19)
(15.2847 6.96123 1.67383e-19)
(15.1821 7.20305 -7.47419e-19)
(15.097 7.38059 1.33922e-19)
(15.2344 3.52352 3.14295e-18)
(15.2464 3.53344 -4.02676e-18)
(15.268 3.54707 1.04057e-19)
(15.2885 3.56247 3.62227e-18)
(15.3191 3.58125 -1.83073e-19)
(15.3602 3.60869 -6.12921e-18)
(15.4126 3.64937 1.0751e-17)
(15.477 3.7113 2.82735e-19)
(15.5492 3.80139 -2.02763e-19)
(15.6248 3.9273 -5.21944e-18)
(15.6957 4.09465 1.14721e-19)
(15.7534 4.30614 -2.64653e-18)
(15.789 4.55868 -1.5734e-18)
(15.7984 4.84356 0)
(15.7838 5.14893 1.50544e-18)
(15.7524 5.46478 -2.1153e-18)
(15.7103 5.7846 -1.78471e-19)
(15.6593 6.1044 6.86738e-19)
(15.5983 6.41655 -8.27926e-21)
(15.5259 6.71556 6.93305e-19)
(15.4479 6.98453 0)
(15.3594 7.23532 2.36421e-19)
(15.2881 7.41862 0)
(15.2361 3.52338 -5.2738e-18)
(15.2471 3.53292 -4.09535e-18)
(15.2696 3.54557 1.79314e-19)
(15.2901 3.55993 -7.1586e-18)
(15.322 3.57684 3.68834e-18)
(15.3649 3.6021 -1.78548e-19)
(15.4202 3.6402 -5.55e-18)
(15.4891 3.6996 8.07752e-20)
(15.567 3.78752 -2.27578e-19)
(15.65 3.9121 5.39853e-18)
(15.7295 4.07945 0)
(15.7968 4.29268 2.42488e-18)
(15.8424 4.54863 1.6045e-19)
(15.8613 4.83778 -7.12427e-20)
(15.8563 5.14686 -1.56366e-18)
(15.8356 5.46497 2.1007e-21)
(15.8067 5.78577 6.25512e-19)
(15.7721 6.10676 -1.16075e-18)
(15.73 6.42119 0)
(15.6773 6.72512 -5.26029e-19)
(15.6191 6.99959 7.06259e-19)
(15.5477 7.2592 0)
(15.4927 7.44793 -3.97746e-19)
(15.2376 3.52324 1.95249e-18)
(15.2477 3.53254 -4.89384e-20)
(15.2709 3.54421 1.80948e-19)
(15.2915 3.55764 3.47727e-18)
(15.3244 3.57271 -7.28996e-18)
(15.3689 3.59582 2.96854e-20)
(15.427 3.63132 8.1997e-20)
(15.4999 3.68813 4.99729e-18)
(15.5833 3.77375 -1.10033e-19)
(15.6733 3.89676 0)
(15.7613 4.06382 3.95973e-18)
(15.8383 4.27848 8.26082e-20)
(15.8938 4.53759 5.74424e-20)
(15.9227 4.8308 4.28606e-21)
(15.9275 5.14329 -1.61543e-19)
(15.9178 5.46297 1.21436e-18)
(15.9028 5.78352 -7.44401e-19)
(15.8857 6.10406 -1.28998e-19)
(15.8644 6.41893 -2.66992e-19)
(15.8342 6.72618 7.45127e-19)
(15.7989 7.00471 -5.09044e-19)
(15.7476 7.2726 1.09376e-18)
(15.7119 7.46616 -7.22057e-19)
(15.2391 3.52311 2.2666e-18)
(15.2483 3.53226 4.02833e-18)
(15.272 3.54298 1.45865e-20)
(15.2926 3.55556 3.77515e-18)
(15.3265 3.56881 7.48363e-18)
(15.3723 3.58981 -3.02828e-20)
(15.4329 3.6227 -8.44898e-20)
(15.5096 3.67684 1.46963e-19)
(15.5982 3.76001 -3.97068e-18)
(15.695 3.88123 2.99789e-18)
(15.7915 4.0477 -4.16512e-18)
(15.8781 4.26347 -2.78743e-18)
(15.944 4.5255 1.93027e-18)
(15.9831 4.82258 0)
(15.9979 5.13819 9.24024e-19)
(15.9994 5.45875 0)
(15.9986 5.77768 9.97278e-19)
(16.0002 6.09582 6.52941e-19)
(16.0015 6.40879 -1.73665e-20)
(15.9964 6.71722 -8.7482e-19)
(15.987 6.99773 -2.04158e-20)
(15.9592 7.27268 1.48482e-20)
(15.9459 7.47015 -3.15261e-19)
(15.2404 3.52304 8.32126e-20)
(15.2487 3.53208 3.99627e-20)
(15.273 3.54188 -1.3893e-20)
(15.2935 3.55368 -3.78689e-18)
(15.3282 3.56515 -3.75654e-18)
(15.3752 3.58405 0)
(15.4381 3.61431 5.61265e-20)
(15.5184 3.66569 -5.16585e-18)
(15.612 3.74624 -1.21502e-19)
(15.7154 3.8654 -3.00895e-18)
(15.8202 4.03095 2.24231e-18)
(15.9168 4.2475 4.38077e-18)
(15.9934 4.51221 -1.8749e-18)
(16.043 4.81305 1.28603e-18)
(16.0682 5.13157 1.00698e-19)
(16.0809 5.45233 1.35723e-20)
(16.0945 5.7681 -5.24655e-20)
(16.1153 6.08139 -2.15377e-19)
(16.141 6.38933 1.52324e-19)
(16.1634 6.69587 -2.94899e-19)
(16.1834 6.97492 -3.01108e-20)
(16.1827 7.25543 2.59122e-19)
(16.1962 7.45407 0)
(15.2415 3.52301 4.69953e-20)
(15.2491 3.53197 0)
(15.2738 3.54087 0)
(15.2943 3.55196 -3.88978e-18)
(15.3295 3.56168 -3.93807e-18)
(15.3777 3.57852 3.64783e-18)
(15.4427 3.60611 4.45549e-20)
(15.5264 3.65464 -4.63655e-20)
(15.6247 3.73241 4.17637e-18)
(15.7346 3.84923 -5.12544e-20)
(15.8478 4.0135 1.41234e-19)
(15.9546 4.23047 -1.50191e-18)
(16.0422 4.4976 0)
(16.1029 4.80209 -1.37509e-18)
(16.1385 5.12334 -1.97673e-18)
(16.1622 5.44353 -8.03159e-19)
(16.1899 5.75434 -5.199e-19)
(16.2304 6.05998 0)
(16.2817 6.3592 0)
(16.3341 6.65978 4.96921e-19)
(16.3866 6.93374 3.57656e-19)
(16.4169 7.21446 -7.58188e-19)
(16.4601 7.41461 0)
(15.2426 3.5231 -2.63682e-18)
(15.2494 3.53193 1.99736e-20)
(15.2744 3.53997 -6.3041e-21)
(15.2949 3.55039 3.86008e-18)
(15.3306 3.5584 7.85612e-18)
(15.3797 3.57318 -7.30035e-18)
(15.4467 3.59805 -4.5579e-20)
(15.5335 3.64363 -4.76987e-20)
(15.6365 3.71843 6.25399e-20)
(15.7528 3.83263 0)
(15.8744 3.99524 -2.26428e-18)
(15.9916 4.21223 1.61398e-18)
(16.0908 4.48148 0)
(16.1631 4.78949 0)
(16.2095 5.1134 9.31548e-19)
(16.244 5.43254 7.01393e-20)
(16.2853 5.73683 5.78944e-19)
(16.3448 6.03163 4.73801e-19)
(16.4222 6.31773 -7.39728e-19)
(16.506 6.60639 -2.90877e-19)
(16.5932 6.8707 1.16744e-18)
(16.6586 7.14348 -1.11258e-18)
(16.734 7.34493 7.35993e-19)
(15.2435 3.52324 1.36247e-18)
(15.2496 3.53194 1.81869e-18)
(15.275 3.53917 2.03984e-20)
(15.2954 3.54895 -2.69453e-20)
(15.3314 3.55528 -3.97402e-18)
(15.3814 3.568 3.72437e-18)
(15.4502 3.59011 -3.02509e-20)
(15.54 3.6326 -9.10844e-21)
(15.6473 3.70421 6.40325e-20)
(15.77 3.81543 2.72812e-20)
(15.9002 3.97593 -3.56327e-20)
(16.0281 4.19245 -1.6085e-18)
(16.1396 4.46348 1.15212e-18)
(16.2241 4.77498 -4.57059e-20)
(16.2814 5.10163 0)
(16.3259 5.41927 -6.70731e-20)
(16.3794 5.71522 6.93651e-20)
(16.4568 5.99534 -4.6572e-19)
(16.5595 6.26292 8.97668e-19)
(16.6755 6.53223 5.69026e-19)
(16.7989 6.78032 -3.90315e-19)
(16.9032 7.03575 -6.12634e-19)
(17.0131 7.23443 7.70154e-19)
(15.2443 3.52341 8.85252e-21)
(15.2498 3.53199 -1.83383e-18)
(15.2755 3.53844 0)
(15.2958 3.54761 0)
(15.332 3.5523 0)
(15.3827 3.56296 0)
(15.4531 3.58225 3.08848e-20)
(15.5457 3.62153 -1.55667e-20)
(15.6574 3.68971 -3.27448e-20)
(15.7862 3.7976 2.80371e-20)
(15.925 3.95549 -3.65926e-20)
(16.0641 4.17101 0)
(16.1885 4.44345 -2.26082e-18)
(16.286 4.75841 4.89438e-20)
(16.3543 5.08799 -9.88846e-20)
(16.408 5.40378 8.61379e-19)
(16.4717 5.68958 -6.9521e-20)
(16.5643 5.95079 1.35452e-19)
(16.6902 6.19341 -1.61433e-19)
(16.8373 6.43437 2.97736e-19)
(16.9968 6.65677 -4.42824e-19)
(17.1419 6.8841 0)
(17.2877 7.07101 4.37354e-19)
(15.245 3.52361 -2.69778e-18)
(15.25 3.53206 -8.8005e-19)
(15.2759 3.53778 -1.3512e-20)
(15.296 3.54637 2.04759e-18)
(15.3324 3.54945 2.05165e-18)
(15.3837 3.55804 1.83153e-20)
(15.4556 3.57445 -3.52444e-18)
(15.5507 3.61037 2.96162e-18)
(15.6666 3.67487 2.30291e-18)
(15.8015 3.77904 0)
(15.9491 3.93379 4.05673e-20)
(16.0998 4.14771 -1.8137e-18)
(16.2378 4.42113 1.18066e-18)
(16.3491 4.73953 7.36412e-19)
(16.4287 5.0724 5.31293e-19)
(16.4905 5.38635 0)
(16.5615 5.66043 0)
(16.6651 5.89836 -4.76607e-19)
(16.8095 6.10874 -5.92435e-19)
(16.9836 6.31094 3.11737e-19)
(17.1762 6.49534 2.42289e-19)
(17.3608 6.68214 3.27277e-19)
(17.5418 6.84396 -4.60636e-19)
(15.2456 3.52384 1.34712e-18)
(15.2501 3.53216 8.84678e-19)
(15.2763 3.53717 -1.06284e-20)
(15.2962 3.54519 2.68702e-20)
(15.3327 3.54666 -2.05356e-18)
(15.3845 3.55314 -1.95145e-18)
(15.4577 3.56661 1.69667e-18)
(15.5554 3.59904 -2.93666e-18)
(15.6752 3.65964 -2.29565e-18)
(15.8162 3.7597 -5.25189e-20)
(15.9726 3.91073 0)
(16.1352 4.1224 1.75626e-18)
(16.2877 4.39627 1.21565e-18)
(16.4137 4.7181 -7.79812e-19)
(16.5048 5.05486 -4.57046e-19)
(16.5729 5.36749 -1.95631e-19)
(16.6472 5.62892 -1.51038e-19)
(16.7558 5.83973 9.31984e-19)
(16.9112 6.01057 0)
(17.1045 6.1632 0)
(17.3231 6.29554 2.53666e-19)
(17.5407 6.42709 -6.25715e-19)
(17.7518 6.5465 -4.81737e-19)
(15.2461 3.52409 -1.28951e-18)
(15.2501 3.53229 0)
(15.2766 3.53665 0)
(15.2962 3.54417 -4.13934e-18)
(15.3325 3.54413 2.07702e-18)
(15.3846 3.54851 1.99886e-18)
(15.4589 3.55892 -2.82664e-20)
(15.5588 3.58759 1.49726e-18)
(15.6826 3.64386 5.54681e-20)
(15.8296 3.73922 -1.87192e-18)
(15.9953 3.8858 4.30253e-20)
(16.1706 4.09441 -5.58834e-20)
(16.3388 4.36813 -1.21087e-18)
(16.481 4.6935 8.18774e-19)
(16.5843 5.03527 5.00086e-19)
(16.6571 5.34811 -3.71786e-19)
(16.7291 5.59729 3.48528e-19)
(16.8334 5.77844 -4.55835e-19)
(16.988 5.90328 0)
(17.1872 5.99559 0)
(17.4181 6.06065 -2.23242e-19)
(17.6544 6.12091 1.64824e-19)
(17.8832 6.18025 -4.95783e-19)
(15.2464 3.52436 3.73789e-20)
(15.2505 3.5323 -9.15013e-19)
(15.2771 3.53591 0)
(15.2964 3.54271 1.03396e-18)
(15.3332 3.54097 -4.2231e-18)
(15.3861 3.54319 1.92028e-20)
(15.4619 3.55074 -5.74471e-20)
(15.564 3.57598 -1.55106e-18)
(15.6914 3.62826 3.55598e-20)
(15.8438 3.71902 1.87429e-18)
(16.018 3.86081 -4.05902e-20)
(16.2053 4.06558 -9.33884e-19)
(16.3889 4.33818 -7.88724e-20)
(16.5473 4.66656 -7.62256e-19)
(16.6626 5.01399 -5.64414e-19)
(16.7383 5.3289 5.50817e-20)
(16.803 5.56771 0)
(16.8937 5.71929 -6.08889e-20)
(17.0335 5.79493 7.76479e-20)
(17.2205 5.82001 0)
(17.4429 5.80825 2.09185e-19)
(17.6756 5.7886 -1.61903e-19)
(17.9008 5.777 0)
(15.2468 3.52477 1.25611e-18)
(15.2501 3.53298 9.14133e-19)
(15.2767 3.53645 0)
(15.2957 3.54341 1.03972e-18)
(15.3317 3.54091 4.25323e-18)
(15.3843 3.54142 2.04096e-18)
(15.4605 3.54566 3.69156e-18)
(15.5644 3.56632 0)
(15.6954 3.6129 2.5226e-18)
(15.8538 3.6971 -1.91552e-18)
(16.0374 3.83207 1.3978e-18)
(16.2389 4.03105 9.64228e-19)
(16.441 4.3015 -1.0125e-20)
(16.6197 4.63379 1.3093e-20)
(16.7499 4.99072 -5.26039e-19)
(16.827 5.31414 3.46054e-19)
(16.8758 5.54915 0)
(16.9361 5.67417 1.68768e-19)
(17.0383 5.69826 0)
(17.1874 5.64995 0)
(17.3765 5.55419 -2.03933e-19)
(17.5797 5.44903 -4.62735e-19)
(17.7726 5.35976 4.00026e-19)
(15.247 3.52498 0)
(15.2503 3.5333 -4.2629e-23)
(15.277 3.53656 1.41703e-22)
(15.2958 3.54343 -1.0538e-18)
(15.3318 3.54036 -1.05502e-18)
(15.3845 3.53976 -2.041e-18)
(15.4613 3.54202 -1.85887e-18)
(15.5664 3.55979 -1.74984e-21)
(15.6999 3.60246 -1.23957e-18)
(15.8624 3.68167 -3.34386e-20)
(16.0532 3.81081 3.13079e-20)
(16.266 4.004 0)
(16.4845 4.27087 1.03132e-20)
(16.6827 4.60473 -1.33129e-20)
(16.8293 4.96975 7.66124e-19)
(16.9101 5.30379 2.03342e-20)
(16.9413 5.54219 0)
(16.9618 5.65233 9.36121e-21)
(17.0081 5.63843 -5.58921e-20)
(17.0947 5.52874 0)
(17.2189 5.35796 0)
(17.3549 5.17813 2.47647e-19)
(17.4801 5.0224 -2.0189e-19)
(15.2473 3.52519 1.17979e-18)
(15.2504 3.53358 9.63856e-19)
(15.2772 3.53661 0)
(15.2958 3.54335 1.0551e-18)
(15.3318 3.53966 -1.08452e-18)
(15.3847 3.53794 -2.10347e-18)
(15.4621 3.53828 1.91905e-18)
(15.5684 3.55323 -1.62009e-18)
(15.7042 3.59209 -1.28368e-18)
(15.8708 3.66635 2.94375e-18)
(16.0688 3.7895 -1.42956e-18)
(16.2932 3.97648 -1.02658e-18)
(16.5289 4.23903 -6.92831e-19)
(16.7481 4.57399 0)
(16.913 4.9484 -2.57855e-19)
(16.998 5.29825 2.81e-19)
(17.0083 5.55084 1.0805e-20)
(16.9786 5.66172 -1.45038e-19)
(16.9498 5.62425 0)
(16.9464 5.46392 0)
(16.9766 5.23562 0)
(17.0278 5.01361 -2.90088e-19)
(17.0772 4.82488 2.87867e-19)
(15.2476 3.52538 -1.18156e-18)
(15.2505 3.53384 1.4501e-20)
(15.2773 3.53663 0)
(15.2958 3.54326 -1.08084e-18)
(15.3318 3.53895 -1.15007e-22)
(15.3848 3.53611 3.17488e-18)
(15.4627 3.53451 -3.87047e-18)
(15.5702 3.54663 4.9142e-18)
(15.7083 3.58163 -1.41078e-21)
(15.8789 3.6508 -9.90026e-19)
(16.084 3.76762 -7.47717e-19)
(16.3201 3.94772 1.02758e-18)
(16.5735 4.20502 6.83268e-19)
(16.8152 4.54052 -4.41291e-19)
(17.0011 4.92579 3.55436e-21)
(17.0929 5.2976 -2.83174e-19)
(17.082 5.57703 0)
(16.9937 5.70522 0)
(16.8705 5.66143 1.31455e-20)
(16.758 5.48039 0)
(16.6942 5.24782 0)
(16.6694 5.03217 4.11392e-20)
(16.6321 4.82882 6.38373e-20)
(15.2478 3.52556 0)
(15.2506 3.53409 -9.8105e-19)
(15.2774 3.53665 2.93492e-23)
(15.2958 3.54316 -1.54827e-20)
(15.3317 3.53825 -8.69873e-23)
(15.3848 3.53428 -2.15501e-18)
(15.4631 3.53075 1.95126e-18)
(15.5718 3.54002 -3.29497e-18)
(15.7121 3.57108 -1.34237e-18)
(15.8866 3.63495 0)
(16.0986 3.74503 7.4399e-19)
(16.3463 3.9175 2.05481e-21)
(16.6177 4.16846 2.56701e-24)
(16.8835 4.50364 4.37754e-19)
(17.0935 4.90095 0)
(17.1968 5.30082 1.14939e-19)
(17.1674 5.62029 -1.77548e-21)
(17.0165 5.78734 0)
(16.7956 5.77599 -1.29761e-20)
(16.5895 5.63527 0)
(16.4452 5.44553 0)
(16.3132 5.23755 0)
(16.1464 5.00968 -3.68516e-20)
(15.248 3.52572 0)
(15.2507 3.53433 5.05128e-19)
(15.2775 3.53667 -5.60379e-24)
(15.2958 3.54308 1.09899e-18)
(15.3316 3.53757 1.15469e-18)
(15.3848 3.53249 2.18725e-18)
(15.4635 3.52702 0)
(15.5732 3.5334 -1.68837e-18)
(15.7155 3.56044 2.70079e-18)
(15.8936 3.61882 -1.81253e-23)
(16.1123 3.72173 7.69535e-19)
(16.3715 3.88574 -5.45497e-19)
(16.6615 4.1291 0)
(16.953 4.46275 0)
(17.1913 4.87266 2.49766e-19)
(17.3127 5.30612 -1.12536e-19)
(17.2721 5.68059 0)
(17.0681 5.91845 7.44341e-20)
(16.7681 5.98678 1.0388e-19)
(16.4729 5.90725 0)
(16.196 5.72293 -1.46773e-21)
(15.9051 5.49085 1.31399e-22)
(15.6276 5.26389 1.32189e-20)
(15.2482 3.52588 5.27935e-24)
(15.2508 3.53456 -1.01828e-18)
(15.2776 3.53668 -1.48493e-23)
(15.2958 3.543 0)
(15.3315 3.53691 1.5556e-20)
(15.3847 3.53073 -2.21688e-18)
(15.4637 3.52332 -4.34435e-22)
(15.5744 3.52678 1.68928e-18)
(15.7186 3.54971 -1.35791e-18)
(15.9002 3.6024 1.05052e-18)
(16.1254 3.69771 1.14873e-20)
(16.396 3.85241 1.10169e-18)
(16.7048 4.08676 -7.55695e-19)
(17.0238 4.41721 1.82729e-21)
(17.2953 4.83939 -5.01627e-19)
(17.444 5.31117 9.54562e-20)
(17.4068 5.75683 6.5578e-22)
(17.1692 6.09395 -7.53809e-20)
(16.7915 6.25083 -1.01507e-19)
(16.3487 6.19445 0)
(15.8866 6.00051 -1.16946e-19)
(15.4938 5.79822 0)
(15.1574 5.61641 6.39293e-20)
(15.2485 3.52602 0)
(15.2509 3.53479 5.13127e-19)
(15.2778 3.53669 6.05016e-19)
(15.2958 3.54292 6.08909e-23)
(15.3313 3.53628 -2.35927e-18)
(15.3846 3.529 1.11631e-18)
(15.4639 3.51965 0)
(15.5754 3.52017 0)
(15.7215 3.53891 -7.4219e-22)
(15.9064 3.58572 -1.04989e-18)
(16.1378 3.67299 1.12641e-20)
(16.4195 3.81748 -5.55391e-19)
(16.7474 4.04121 7.51569e-19)
(17.0958 4.36629 0)
(17.4059 4.79933 2.50347e-19)
(17.5937 5.31242 -9.20082e-20)
(17.5787 5.84041 -2.10995e-20)
(17.321 6.28505 -6.14602e-21)
(16.8449 6.52542 0)
(16.2385 6.55028 0)
(15.6811 6.52501 3.73208e-20)
(15.2774 6.48462 1.99798e-19)
(14.8287 6.33571 -9.11008e-20)
(15.2487 3.52615 0)
(15.251 3.535 -2.31474e-23)
(15.2779 3.53669 -6.05663e-19)
(15.2958 3.54286 5.83468e-19)
(15.3312 3.53567 1.18744e-18)
(15.3844 3.52731 2.41215e-22)
(15.464 3.51602 1.03009e-18)
(15.5763 3.51357 8.6817e-19)
(15.724 3.52805 -1.39571e-18)
(15.9122 3.56878 0)
(16.1495 3.64758 1.11445e-20)
(16.442 3.78092 -5.77922e-19)
(16.7891 3.99227 0)
(17.1685 4.30924 -6.95198e-21)
(17.5231 4.7503 2.76e-19)
(17.763 5.30423 0)
(17.7885 5.91604 3.2817e-21)
(17.525 6.47228 2.23711e-20)
(16.9872 6.86796 -3.18116e-19)
(16.3515 7.20351 0)
(15.8135 7.57594 0)
(15.2613 7.73743 -1.03573e-19)
(14.4946 7.58684 4.50216e-19)
(15.2489 3.52627 -1.09814e-23)
(15.2511 3.5352 1.44914e-23)
(15.278 3.53669 0)
(15.2958 3.5428 5.9625e-19)
(15.331 3.53509 -6.20622e-22)
(15.3842 3.52566 4.86929e-22)
(15.464 3.51243 -1.03038e-18)
(15.577 3.50698 -8.69593e-19)
(15.7263 3.51712 1.39653e-18)
(15.9174 3.5516 -1.08282e-18)
(16.1603 3.62149 -8.05701e-19)
(16.4632 3.74273 5.8231e-19)
(16.8294 3.93978 4.01495e-19)
(17.2415 4.24531 2.52119e-19)
(17.6462 4.68979 -2.62688e-19)
(17.951 5.27932 7.82249e-21)
(18.0373 5.97012 4.96723e-20)
(17.8147 6.66496 9.81178e-20)
(17.3519 7.36045 1.09493e-19)
(16.8496 8.19133 -1.59457e-19)
(16.2414 8.93784 1.87556e-19)
(15.2759 9.19054 0)
(14.0996 9.05403 -2.09048e-19)
(15.2491 3.52637 0)
(15.2512 3.53539 5.37414e-19)
(15.2781 3.53669 6.27017e-19)
(15.2958 3.54274 -5.85655e-19)
(15.3308 3.53453 6.10586e-19)
(15.3839 3.52404 0)
(15.4639 3.50888 1.18668e-21)
(15.5776 3.50041 -1.55319e-21)
(15.7282 3.50614 7.09213e-19)
(15.922 3.53419 1.63377e-18)
(16.1701 3.59475 -8.21676e-19)
(16.483 3.70292 -4.42238e-21)
(16.8681 3.88359 1.24605e-20)
(17.3138 4.17376 -2.58622e-19)
(17.7736 4.61507 0)
(18.1556 5.23034 1.12928e-19)
(18.332 5.99418 2.61719e-20)
(18.2404 6.86955 -1.13355e-19)
(18.0117 7.95554 -1.07216e-19)
(17.6525 9.20726 -5.40956e-20)
(16.7321 10.056 2.06119e-19)
(15.2176 10.2141 -1.77821e-19)
(13.7381 10.0397 -2.86704e-19)
(15.2494 3.52645 3.06481e-19)
(15.2512 3.53557 4.41066e-21)
(15.2782 3.53667 -6.2767e-19)
(15.2957 3.54269 -5.95816e-19)
(15.3306 3.53399 -1.22635e-18)
(15.3836 3.52246 -1.16556e-18)
(15.4637 3.50537 -1.19517e-21)
(15.5779 3.49386 1.56419e-21)
(15.7299 3.49512 -7.09608e-19)
(15.9262 3.51657 -5.48463e-19)
(16.1791 3.56741 1.66177e-18)
(16.5013 3.66154 -6.13578e-19)
(16.9046 3.82365 -4.19068e-19)
(17.3846 4.09395 2.83577e-19)
(17.9035 4.52353 -7.70287e-21)
(18.3745 5.15098 -1.00008e-19)
(18.6813 5.98023 -4.19104e-20)
(18.8231 7.05494 1.55418e-19)
(18.903 8.48027 8.81891e-20)
(18.5206 9.89407 0)
(17.0259 10.5693 -2.66165e-19)
(14.9229 10.4945 3.49209e-19)
(13.2644 10.1942 -5.58778e-19)
(15.2496 3.52652 -3.06737e-19)
(15.2513 3.53574 -8.16373e-19)
(15.2783 3.53665 -6.38205e-19)
(15.2957 3.54265 6.05032e-19)
(15.3304 3.53347 6.15623e-19)
(15.3832 3.52091 1.16628e-18)
(15.4633 3.5019 1.06068e-18)
(15.5781 3.48734 0)
(15.7312 3.48406 7.21307e-19)
(15.9297 3.49876 -5.60092e-19)
(16.187 3.53949 -8.36716e-19)
(16.5178 3.61865 6.13453e-19)
(16.9385 3.75995 0)
(17.4526 4.00536 -2.65443e-19)
(18.0331 4.41301 1.57947e-19)
(18.6051 5.03609 -8.64242e-20)
(19.0852 5.91513 -1.76701e-20)
(19.5321 7.15575 -6.99631e-20)
(19.8772 8.75821 2.65608e-19)
(19.2308 10.0766 -1.99463e-19)
(16.9678 10.4427 0)
(14.2903 10.1008 7.7546e-19)
(12.5528 9.63444 -1.09754e-18)
(15.2498 3.52658 0)
(15.2514 3.53589 2.73746e-19)
(15.2784 3.53663 6.38579e-19)
(15.2956 3.54261 -6.0564e-19)
(15.3301 3.53297 -1.23288e-22)
(15.3828 3.5194 5.01666e-22)
(15.4629 3.49847 -5.26517e-19)
(15.5781 3.48084 0)
(15.7322 3.47298 -7.21695e-19)
(15.9327 3.48079 -5.85037e-21)
(16.1938 3.51106 0)
(16.5324 3.57433 -3.19425e-19)
(16.9694 3.69253 0)
(17.5166 3.90771 1.89423e-20)
(18.1595 4.28199 -3.8039e-19)
(18.8426 4.88128 5.95906e-20)
(19.5293 5.78056 -2.95912e-21)
(20.299 7.10469 1.07722e-20)
(20.7892 8.69925 -9.7879e-20)
(19.6701 9.77564 -2.22614e-19)
(16.5485 9.85082 3.6408e-19)
(13.3369 9.30783 -4.6183e-19)
(11.5916 8.69917 1.86095e-18)
(15.25 3.52661 -3.04649e-19)
(15.2515 3.53603 2.78431e-19)
(15.2785 3.53659 -3.23865e-19)
(15.2956 3.54257 -3.28133e-22)
(15.3299 3.53249 6.44846e-22)
(15.3824 3.51793 -1.21201e-21)
(15.4625 3.49509 -5.34631e-19)
(15.5779 3.47438 3.61207e-21)
(15.7329 3.46188 -2.62344e-21)
(15.9352 3.46269 -5.80478e-21)
(16.1996 3.48217 -4.35718e-19)
(16.545 3.52869 3.08618e-19)
(16.9967 3.62156 1.38612e-20)
(17.575 3.80099 -2.05727e-20)
(18.2793 4.12976 2.23807e-19)
(19.0792 4.68291 0)
(19.9868 5.55844 7.16265e-20)
(21.0476 6.86011 -7.14837e-21)
(21.5473 8.30277 5.23176e-20)
(19.8398 9.1068 -1.92298e-19)
(15.8705 9.00133 1.03472e-19)
(12.1647 8.37329 -3.67097e-20)
(10.4253 7.66511 -8.2774e-19)
(15.2502 3.52663 6.08242e-19)
(15.2515 3.53616 -2.78679e-19)
(15.2785 3.53655 -2.27641e-21)
(15.2955 3.54253 0)
(15.3296 3.53204 0)
(15.3819 3.51649 -6.01865e-19)
(15.4619 3.49175 -5.42843e-19)
(15.5776 3.46796 0)
(15.7334 3.45079 -3.21379e-21)
(15.937 3.44448 5.76677e-19)
(16.2042 3.45288 4.43397e-19)
(16.5553 3.48187 -9.64943e-21)
(17.0199 3.54727 -1.60566e-20)
(17.6264 3.68551 4.26547e-20)
(18.3888 3.9564 -2.78665e-20)
(19.3045 4.43862 0)
(20.4251 5.23681 -1.37184e-19)
(21.7138 6.41256 -9.43497e-21)
(22.118 7.61877 -1.52616e-19)
(19.8149 8.19476 3.34689e-20)
(15.095 8.04926 -9.20007e-20)
(10.9239 7.48201 1.8612e-19)
(9.15691 6.74639 0)
(15.2503 3.52662 -6.0589e-19)
(15.2516 3.53627 3.03015e-23)
(15.2786 3.53649 3.2675e-19)
(15.2955 3.54249 0)
(15.3293 3.5316 0)
(15.3814 3.51509 -4.1339e-21)
(15.4613 3.48846 1.08961e-18)
(15.5772 3.46158 0)
(15.7335 3.43971 3.73471e-19)
(15.9383 3.42619 0)
(16.2076 3.42327 0)
(16.5634 3.43403 -1.14203e-20)
(17.0385 3.47001 1.45946e-20)
(17.6693 3.56191 1.59687e-19)
(18.4836 3.76285 3.02197e-20)
(19.5063 4.14815 -4.92288e-20)
(20.812 4.81316 1.66353e-19)
(22.2533 5.77749 0)
(22.5057 6.70888 8.04899e-20)
(19.6912 7.12423 0)
(14.376 7.05479 6.31745e-20)
(9.74037 6.67685 2.557e-20)
(7.74635 6.00365 0)
(15.2505 3.5266 4.53237e-19)
(15.2517 3.53637 -1.43532e-19)
(15.2787 3.53643 0)
(15.2954 3.54246 3.15464e-19)
(15.329 3.53118 -3.23023e-19)
(15.3808 3.51373 6.07437e-19)
(15.4606 3.48523 -5.47699e-19)
(15.5766 3.45525 -4.67929e-19)
(15.7333 3.42865 -3.70989e-19)
(15.939 3.40785 -5.06906e-21)
(16.2098 3.39341 6.5522e-21)
(16.5689 3.38536 3.43952e-19)
(17.0521 3.39022 1.75029e-20)
(17.7021 3.43115 -2.32391e-19)
(18.5596 3.55093 3.26537e-20)
(19.6723 3.81403 0)
(21.1199 4.29487 0)
(22.6392 4.98525 0)
(22.7265 5.62828 0)
(19.5406 5.93763 -9.09718e-20)
(13.8065 6.0148 -3.34e-19)
(8.70744 5.92245 4.9243e-19)
(6.30404 5.43002 0)
(15.2507 3.52655 -1.50847e-19)
(15.2518 3.53644 2.88653e-19)
(15.2788 3.53636 0)
(15.2953 3.54242 -3.15841e-19)
(15.3287 3.53078 6.49756e-19)
(15.3803 3.5124 0)
(15.4598 3.48204 0)
(15.5758 3.44898 4.66129e-19)
(15.7328 3.41762 0)
(15.939 3.38949 -2.91886e-19)
(16.2107 3.36338 -2.34768e-19)
(16.5717 3.33606 -1.69433e-19)
(17.0601 3.3084 2.65525e-19)
(17.7237 3.29452 0)
(18.6126 3.32337 0)
(19.7914 3.44192 7.59655e-20)
(21.3282 3.69779 -9.22059e-20)
(22.8584 4.07519 0)
(22.7981 4.42893 -1.69504e-19)
(19.4086 4.66536 9.56964e-20)
(13.4727 4.92844 6.27933e-19)
(8.0208 5.21246 -9.82599e-19)
(5.04866 5.03437 0)
(15.2508 3.52648 2.33904e-23)
(15.2518 3.53651 -2.91671e-19)
(15.2788 3.53627 -1.03318e-22)
(15.2953 3.54238 -1.6054e-19)
(15.3284 3.5304 -3.26728e-19)
(15.3797 3.51112 3.10464e-19)
(15.4589 3.47891 9.6533e-22)
(15.5749 3.44276 -2.38294e-19)
(15.732 3.40664 3.87726e-19)
(15.9385 3.37114 2.92861e-19)
(16.2104 3.33326 2.28302e-19)
(16.5719 3.28637 -1.74916e-19)
(17.0624 3.22517 -2.65795e-19)
(17.7329 3.15356 -2.99861e-20)
(18.6393 3.0838 3.74352e-20)
(19.8546 3.04039 8.90525e-20)
(21.4245 3.04388 -1.08784e-19)
(22.9088 3.09055 0)
(22.7355 3.16222 1.76551e-19)
(19.3298 3.32584 0)
(13.4241 3.75522 -1.0416e-19)
(7.75356 4.39551 0)
(4.0604 4.59059 -8.16881e-20)
(15.251 3.52639 7.52787e-20)
(15.2519 3.53655 1.46545e-19)
(15.2789 3.53617 1.70159e-19)
(15.2952 3.54235 -1.03312e-21)
(15.328 3.53004 -5.49194e-22)
(15.379 3.50987 2.98272e-21)
(15.458 3.47584 -2.81755e-19)
(15.5738 3.4366 -3.05417e-21)
(15.7308 3.39572 -3.81889e-19)
(15.9373 3.35283 -5.21113e-21)
(16.2087 3.30314 2.39158e-19)
(16.5693 3.23651 0)
(17.0585 3.14118 -1.95097e-20)
(17.7287 3.01002 2.47185e-20)
(18.6369 2.83658 9.02482e-20)
(19.856 2.62013 0)
(21.403 2.35798 0)
(22.7956 2.07379 -1.45186e-19)
(22.549 1.86802 0)
(19.2889 1.92998 8.2298e-19)
(13.6517 2.44547 -1.13321e-18)
(7.98765 3.33862 1.50022e-19)
(3.60572 3.99058 3.65005e-18)
(15.2512 3.52627 -1.50666e-19)
(15.252 3.53658 -7.46492e-20)
(15.279 3.53607 -2.55918e-19)
(15.2952 3.54231 1.62897e-19)
(15.3277 3.52969 1.66932e-19)
(15.3784 3.50866 -4.71707e-19)
(15.457 3.47282 2.8221e-19)
(15.5726 3.43051 2.35719e-19)
(15.7294 3.38486 6.13557e-21)
(15.9355 3.33459 -4.38084e-21)
(16.2058 3.27311 -2.32602e-19)
(16.5639 3.18675 -9.11241e-20)
(17.0483 3.05714 1.21628e-19)
(17.7107 2.86582 1.3818e-19)
(18.604 2.58668 -9.08279e-20)
(19.7928 2.19324 0)
(21.2644 1.66505 0)
(22.5252 1.06234 -4.0195e-19)
(22.2338 0.575782 5.13603e-19)
(19.1992 0.475094 0)
(13.9808 0.944217 -1.87652e-19)