/*--------------------------------*- C++ -*----------------------------------*\
  =========                 |
  \\      /  F ield         | OpenFOAM: The Open Source CFD Toolbox
   \\    /   O peration     | Website:  https://openfoam.org
    \\  /    A nd           | Version:  7
     \\/     M anipulation  |
\*---------------------------------------------------------------------------*/
FoamFile
{
    version     2.0;
    format      ascii;
    class       volScalarField;
    location    "81";
    object      yPlus;
}
// * * * * * * * * * * * * * * * * * * * * * * * * * * * * * * * * * * * * * //

dimensions      [0 0 0 0 0 0 0];

internalField   uniform 0;

boundaryField
{
    inlet
    {
        type            calculated;
        value           uniform 0;
    }
    outlet
    {
        type            calculated;
        value           uniform 0;
    }
    suction_side
    {
        type            calculated;
        value           nonuniform List<scalar> 
56
(
12.0561
12.3693
12.6518
13.8748
14.0479
16.2296
17.5125
23.4137
28.8967
33.0434
29.6377
20.2182
25.7082
28.8323
25.517
26.3919
31.7033
38.7079
41.4019
47.1407
37.0517
43.4547
49.6416
47.8517
43.9465
40.2021
37.5577
36.7489
36.5363
36.1283
35.3807
35.5117
36.7107
38.1765
42.497
43.1218
45.0415
29.9957
21.62
23.439
27.4606
31.5666
34.6723
36.8738
38.5737
39.7643
40.2521
39.759
37.3628
32.7267
26.9265
21.7005
19.5623
20.0304
20.0602
21.1729
)
;
    }
    pressure_side
    {
        type            calculated;
        value           nonuniform List<scalar> 
56
(
47.828
45.8142
44.3054
43.8354
42.8596
42.066
41.1131
40.2702
39.548
39.0678
38.6802
38.3728
38.1162
37.901
37.7092
37.5468
37.4006
37.2788
37.1635
37.0439
36.8952
36.7035
36.4658
36.1996
35.9446
35.7579
35.7164
35.8367
36.1465
36.5874
37.0623
37.4219
37.4562
36.603
35.2028
33.1302
30.3341
26.8
22.6593
18.2571
14.1444
11.0287
6.29272
5.35844
5.03559
5.55175
6.11825
7.50953
7.90082
9.5799
9.53167
10.5924
10.5424
10.9756
11.5897
11.3486
)
;
    }
    trailing_edge
    {
        type            calculated;
        value           nonuniform List<scalar> 2(152.882 96.4637);
    }
    defaultFaces
    {
        type            empty;
    }
}


// ************************************************************************* //
