/*--------------------------------*- C++ -*----------------------------------*\
  =========                 |
  \\      /  F ield         | OpenFOAM: The Open Source CFD Toolbox
   \\    /   O peration     | Website:  https://openfoam.org
    \\  /    A nd           | Version:  7
     \\/     M anipulation  |
\*---------------------------------------------------------------------------*/
FoamFile
{
    version     2.0;
    format      ascii;
    class       volScalarField;
    location    "50";
    object      k;
}
// * * * * * * * * * * * * * * * * * * * * * * * * * * * * * * * * * * * * * //

dimensions      [0 2 -2 0 0 0 0];

internalField   nonuniform List<scalar> 
12842
(
0.00569115
0.00512155
0.00473305
0.00449496
0.00431844
0.00418497
0.00410745
0.0040396
0.00400223
0.00396034
0.00394458
0.00392271
0.00392361
0.00393383
0.00395216
0.00397994
0.00400544
0.00404406
0.00407366
0.00411922
0.00414293
0.00417978
0.00419986
0.00566241
0.0050791
0.00470506
0.00448398
0.00431625
0.0041848
0.00410064
0.00403519
0.00399918
0.00395881
0.00394408
0.00392255
0.00392392
0.00393634
0.00395815
0.00398935
0.00401278
0.00405155
0.00408511
0.0041347
0.00416169
0.00420008
0.00422614
0.00563485
0.00502263
0.00463078
0.00441706
0.00427539
0.0041604
0.00406997
0.00401381
0.00398255
0.00394844
0.00393715
0.003921
0.00392335
0.00393868
0.00396456
0.0040052
0.00403791
0.0040743
0.004118
0.00416608
0.00420247
0.00425542
0.00428961
0.00558752
0.00498372
0.00460548
0.0043913
0.00425437
0.00414921
0.00406002
0.00400148
0.00397133
0.00394226
0.00393194
0.0039192
0.00392328
0.0039401
0.00396931
0.00401571
0.00405099
0.00409077
0.00413528
0.00418545
0.00423455
0.00428949
0.0043466
0.00554132
0.00489186
0.00453054
0.0043283
0.00420084
0.00411846
0.0040388
0.00398673
0.00395567
0.00393129
0.00392366
0.00391524
0.00392119
0.00394446
0.00397569
0.00403071
0.00408639
0.00413273
0.00418418
0.00424039
0.00429821
0.00436526
0.00444772
0.00550112
0.00485053
0.00449872
0.00430247
0.00417785
0.00409872
0.00402032
0.00397775
0.00394767
0.00392577
0.00392027
0.00391333
0.00392009
0.00394852
0.00399232
0.00405157
0.00410928
0.00417441
0.00422791
0.00430949
0.00437897
0.00447147
0.0045729
0.00544907
0.0047783
0.00443069
0.004248
0.00413657
0.0040676
0.00400022
0.00396164
0.00393333
0.00391856
0.0039139
0.00391038
0.00392005
0.00395401
0.00401121
0.00408422
0.00416341
0.00425342
0.00432466
0.00442456
0.0045231
0.00463388
0.00475458
0.00540222
0.00474675
0.00440149
0.00422482
0.00411816
0.0040492
0.00398575
0.003954
0.00392754
0.00391236
0.00391055
0.00390876
0.00392226
0.00396223
0.00402385
0.0041133
0.00420348
0.00432724
0.0044161
0.00454094
0.00466024
0.00480234
0.00493491
0.00535387
0.00468225
0.00435346
0.00418312
0.00408951
0.0040223
0.00396754
0.00393892
0.00391774
0.00390741
0.00390485
0.00390628
0.00392394
0.00397676
0.00406352
0.0041754
0.00428858
0.00444234
0.0045499
0.00470729
0.00485307
0.00501441
0.00515565
0.00529772
0.00465293
0.00432078
0.00416067
0.00407725
0.00400791
0.0039595
0.00393239
0.00391126
0.00390464
0.00390194
0.00390553
0.00393282
0.00400531
0.00410576
0.00423892
0.00437301
0.00455446
0.00467794
0.00485888
0.0050208
0.00519697
0.0053438
0.00524441
0.00459015
0.00428673
0.00412892
0.0040518
0.00398763
0.00394474
0.00391962
0.00390555
0.00389905
0.00389858
0.00390305
0.00393754
0.00402511
0.00415954
0.00432353
0.0044833
0.00467917
0.00481641
0.00502169
0.00519899
0.00537805
0.00552041
0.00519182
0.00455618
0.0042568
0.0041128
0.00404044
0.00397706
0.00393813
0.00391324
0.00389959
0.00389381
0.00389398
0.00390839
0.00395416
0.00407081
0.00422672
0.00442084
0.00460112
0.00481701
0.00496802
0.00518446
0.00537096
0.00555951
0.00569868
0.00513824
0.00450754
0.00422656
0.00408452
0.0040183
0.00395892
0.00392539
0.00390176
0.00389127
0.00388931
0.00388989
0.00392415
0.00399442
0.00413
0.00431909
0.00454245
0.00474213
0.00496514
0.00512481
0.00535186
0.00554312
0.0057276
0.00586389
0.00509077
0.00446737
0.00420166
0.00407192
0.00400773
0.00395072
0.0039193
0.00389653
0.00388673
0.00388543
0.00389966
0.00396481
0.00405799
0.00422607
0.0044356
0.004679
0.0048887
0.0051197
0.0052888
0.00551427
0.00570847
0.00589276
0.00602048
0.00504122
0.00443222
0.00417548
0.00404815
0.00398723
0.00393536
0.00390744
0.00388678
0.00388109
0.0038777
0.0039185
0.00401253
0.0041375
0.00433061
0.00457158
0.00483104
0.00504985
0.00527992
0.00544822
0.00567554
0.00586323
0.00604222
0.00616527
0.00499862
0.00439265
0.00415371
0.00403725
0.00397703
0.00392814
0.00390162
0.00388285
0.00387361
0.00388343
0.00396098
0.00408488
0.00423292
0.00446565
0.00472577
0.00499153
0.00520854
0.00543657
0.00560995
0.00582648
0.00600988
0.00618175
0.00630087
0.0049556
0.00436398
0.00412968
0.00401591
0.00395783
0.00391409
0.00389045
0.00387248
0.00386613
0.00388949
0.00400419
0.00416102
0.0043427
0.00460494
0.0048876
0.00515541
0.00537317
0.0055942
0.00575925
0.00597571
0.00614795
0.00630715
0.00641968
0.00491816
0.00433046
0.00411152
0.00400573
0.00394656
0.00390731
0.00388541
0.00387182
0.00388277
0.00393539
0.00407809
0.0042617
0.00446317
0.00476077
0.00505659
0.00532006
0.00552837
0.00573936
0.00590563
0.00610548
0.00627023
0.00641964
0.00653011
0.00488239
0.00430417
0.00409031
0.00398614
0.00393108
0.00389418
0.00387556
0.00387138
0.00390205
0.00398364
0.00415094
0.00436305
0.00459445
0.00491912
0.00522451
0.00547873
0.00568233
0.00588282
0.00603865
0.00623552
0.00639052
0.00652782
0.006628
0.0048501
0.00427739
0.00406827
0.003975
0.00391668
0.00388826
0.00387035
0.00390282
0.00397221
0.00407665
0.004256
0.00448511
0.00473005
0.00507948
0.00538991
0.00563298
0.00582337
0.00600984
0.00616265
0.00634396
0.00648828
0.0066133
0.00670717
0.00482031
0.00425277
0.00405355
0.00395956
0.00390202
0.0038746
0.00386238
0.00393686
0.00402777
0.00415077
0.00435477
0.00460344
0.00487023
0.00523933
0.00554939
0.00577604
0.00595784
0.00613012
0.00627484
0.00644724
0.00658813
0.00670488
0.00678974
0.00479573
0.00423135
0.0040284
0.00394199
0.00389419
0.0038778
0.00387761
0.00401677
0.00413409
0.00427266
0.00448328
0.00473717
0.00501143
0.00539507
0.00569899
0.00591124
0.00607923
0.0062412
0.0063797
0.00654382
0.00667265
0.00677979
0.00686088
0.00477307
0.00420564
0.00401249
0.00393229
0.0038767
0.0038846
0.00390151
0.00408579
0.00421388
0.0043704
0.00459802
0.00486125
0.00514812
0.00554333
0.0058446
0.00603766
0.00619502
0.00634003
0.00647577
0.0066264
0.00675754
0.00685103
0.00691623
0.00475495
0.00418992
0.00399195
0.00391908
0.00386617
0.00390666
0.00397165
0.00420466
0.00435027
0.00452435
0.00475075
0.00500907
0.00529783
0.00569808
0.0059804
0.00615681
0.00629929
0.00643885
0.00656351
0.0067116
0.00682891
0.00691703
0.00698413
0.00474558
0.00416993
0.00398011
0.00390814
0.00387403
0.00396333
0.00406266
0.004306
0.00446964
0.00465177
0.00487972
0.0051371
0.00543175
0.00583777
0.00611335
0.00626889
0.00640016
0.00652358
0.00665059
0.00678567
0.00690375
0.00698055
0.00703533
0.00472943
0.00415802
0.00396615
0.00390521
0.00391284
0.00404572
0.00417016
0.00441703
0.00458751
0.00477989
0.00500404
0.00525713
0.00555627
0.00596413
0.00622161
0.0063685
0.00648586
0.00660858
0.00672523
0.00686224
0.00698265
0.00703561
0.00706787
0.00471882
0.00413787
0.00395349
0.00392481
0.00398021
0.00414935
0.00427983
0.00452894
0.00471075
0.00490527
0.0051242
0.00537296
0.00567403
0.00608465
0.00633326
0.00645918
0.00657184
0.00668507
0.00680537
0.00694019
0.00702657
0.00706647
0.00711213
0.00470408
0.00412603
0.00394979
0.00397169
0.00406305
0.00424892
0.00439904
0.00464827
0.00482857
0.00502592
0.00523652
0.00547984
0.00578711
0.00619281
0.00642357
0.00654942
0.00664358
0.00675256
0.00686432
0.00699111
0.00708558
0.00713471
0.00718223
0.0046892
0.00410867
0.00396474
0.00404711
0.00415024
0.0043623
0.00451475
0.00476191
0.00494637
0.00513958
0.00534183
0.00557997
0.0058867
0.00629458
0.00651338
0.0066206
0.00672259
0.00683817
0.00695407
0.00708625
0.00718884
0.00721818
0.00724795
0.00467523
0.0040993
0.00400054
0.00412533
0.0042529
0.00447285
0.00463563
0.00487521
0.00505521
0.00524505
0.0054377
0.00567171
0.00598887
0.00638607
0.00658821
0.0067064
0.00679078
0.00691135
0.00704329
0.00722708
0.00728011
0.00728967
0.00737847
0.0046593
0.00408494
0.00405303
0.00421971
0.00435593
0.00458708
0.00474821
0.00498177
0.00515979
0.00534094
0.00552517
0.00575481
0.00607091
0.00647102
0.00666393
0.0067674
0.00687074
0.00702119
0.00719656
0.00732377
0.0073747
0.007577
0.00894043
0.00464121
0.00408591
0.00411319
0.00431471
0.00446063
0.00469774
0.00485989
0.00508137
0.00525201
0.00542719
0.00560304
0.00583126
0.00616179
0.00654841
0.00672561
0.00684799
0.00694479
0.00710859
0.00727911
0.00742816
0.00785426
0.0106842
0.0255658
0.00462554
0.00410209
0.00418814
0.00441435
0.00457251
0.00480679
0.00496274
0.00517209
0.00533896
0.00550324
0.00567249
0.00589816
0.00622976
0.00662084
0.00679741
0.0069146
0.00702717
0.0072171
0.00742549
0.00799618
0.0138758
0.0583522
0.212827
0.00461321
0.00415058
0.00426378
0.00451498
0.00466983
0.00490478
0.00505604
0.00525406
0.00541159
0.00556986
0.00573325
0.00596117
0.00630919
0.0066867
0.00685014
0.00698233
0.007105
0.00736654
0.00795152
0.0120928
0.0463696
0.233774
0.587277
0.00459742
0.00420302
0.00435295
0.00461221
0.00477483
0.00500203
0.00514557
0.00532824
0.00547932
0.00562736
0.00578676
0.00601428
0.00636758
0.00675153
0.00692485
0.00706398
0.00720061
0.00749585
0.0084799
0.0173845
0.091042
0.237196
0.610515
0.00457743
0.00427867
0.00443766
0.00470949
0.00486556
0.00508326
0.00522066
0.00538965
0.0055346
0.00567676
0.00583297
0.00606666
0.00643724
0.0068092
0.00697414
0.00711836
0.00727741
0.0077271
0.00970815
0.0276759
0.0801535
0.211402
0.544851
0.00457693
0.00435152
0.00452974
0.00479951
0.00495469
0.00516335
0.00529305
0.00544945
0.00558478
0.00571897
0.0058737
0.00610959
0.00649046
0.00687209
0.00705443
0.00721352
0.00738822
0.00787941
0.0102426
0.0255707
0.0728922
0.249445
0.550986
0.00458972
0.00444013
0.00461836
0.00488852
0.00503698
0.00523175
0.00535541
0.00549693
0.00562608
0.00575502
0.00590875
0.00615349
0.00655284
0.00692544
0.0071052
0.00727118
0.00745943
0.00804229
0.0105753
0.0251566
0.0660382
0.257672
0.529868
0.00461949
0.0045237
0.00470502
0.00496876
0.00511109
0.00528976
0.00541237
0.00553944
0.00566277
0.00578579
0.00593967
0.00619072
0.00660584
0.00699139
0.00719201
0.00736764
0.00757793
0.00814706
0.0106314
0.0242985
0.0892572
0.249491
0.442757
0.00465565
0.00461926
0.00479534
0.0050472
0.00518343
0.00535296
0.00546276
0.00558146
0.00569348
0.0058125
0.00596718
0.00622749
0.00666289
0.00704312
0.00725405
0.00745518
0.00764785
0.00826883
0.0118819
0.0309048
0.0907642
0.210965
0.439242
0.00469799
0.00470234
0.00487135
0.00511673
0.00524319
0.00539458
0.00551084
0.00561136
0.00572011
0.00583538
0.00599074
0.00626282
0.00671972
0.00711471
0.00734321
0.00754031
0.00779005
0.00840306
0.0116038
0.0313885
0.0849295
0.213892
0.433953
0.00474459
0.00479845
0.00495967
0.0051845
0.00530624
0.00543767
0.00554471
0.00563959
0.00574386
0.005856
0.00601352
0.00629479
0.00677386
0.00716777
0.00742125
0.00765613
0.00789052
0.00861274
0.0123448
0.0308074
0.0698317
0.185692
0.444138
0.0047943
0.00487407
0.00502838
0.00524257
0.00535292
0.00548444
0.00558652
0.00567192
0.00576244
0.00587381
0.00603231
0.00632919
0.00683475
0.00724292
0.0075141
0.00779861
0.00812036
0.00902259
0.0129654
0.0303033
0.0812998
0.20621
0.430518
0.0048455
0.00496201
0.00510231
0.00529987
0.00540284
0.00550589
0.00561122
0.00568243
0.00578085
0.00589042
0.00605136
0.0063604
0.00689103
0.00730675
0.00760583
0.00789048
0.00834511
0.00966206
0.0161116
0.0421686
0.0976155
0.215054
0.413286
0.00489561
0.00502657
0.00516965
0.00534631
0.00544543
0.00553187
0.00562338
0.0056878
0.0057947
0.005905
0.00606845
0.00639323
0.00695054
0.00737218
0.00769216
0.00813544
0.00895664
0.0122815
0.0269498
0.0684525
0.149916
0.290494
0.48755
0.00494604
0.00509765
0.00522822
0.0053926
0.00545383
0.00555499
0.00563375
0.00569284
0.00580735
0.00591894
0.00608369
0.00642597
0.0070148
0.00745316
0.00780966
0.00838979
0.0101529
0.0165719
0.0502808
0.116166
0.223583
0.374452
0.56852
0.00499154
0.00514726
0.00528135
0.00542861
0.00546207
0.00555992
0.00563966
0.0057021
0.00581797
0.00593099
0.0061008
0.00645844
0.0070668
0.00750768
0.0079217
0.00873985
0.0120877
0.0270844
0.0821224
0.186195
0.300287
0.450888
0.635591
0.00503886
0.00520325
0.00533109
0.00546271
0.00548406
0.00556846
0.00564177
0.00570978
0.00582718
0.00594333
0.00611383
0.00649245
0.00713673
0.00758749
0.00805119
0.00982712
0.0173656
0.0554849
0.154274
0.250374
0.371686
0.507079
0.681328
0.00508261
0.00523832
0.00537354
0.00549108
0.00550932
0.00558354
0.00564089
0.00571858
0.0058342
0.00595344
0.00612958
0.00652437
0.0071872
0.00765151
0.0083338
0.0112774
0.0270262
0.0898577
0.207033
0.308586
0.430768
0.542958
0.763057
0.00513118
0.00528695
0.00541028
0.00551912
0.00552993
0.00560236
0.00564967
0.00572778
0.00584431
0.00596528
0.00614385
0.00656004
0.00724109
0.00772021
0.00866444
0.0139139
0.0405389
0.12379
0.248757
0.368474
0.476723
0.555398
0.751776
0.00517927
0.00531995
0.00544104
0.00554358
0.00555264
0.00562162
0.00566544
0.00574072
0.00585118
0.00597436
0.00615507
0.00658501
0.00729541
0.0077742
0.00910051
0.0177217
0.0538399
0.156603
0.30068
0.424702
0.506345
0.579232
0.679749
0.00522724
0.00535371
0.0054713
0.00556745
0.00557427
0.00564195
0.00568456
0.00575389
0.00585997
0.00598371
0.00616744
0.0066136
0.00732162
0.0078563
0.0097617
0.0212052
0.0635067
0.180105
0.340828
0.44876
0.513773
0.572173
0.583353
0.00527287
0.00538315
0.00549674
0.00558992
0.00559481
0.0056595
0.0057023
0.00576814
0.00586656
0.00599149
0.00617557
0.00663086
0.00735509
0.00792222
0.0104023
0.0235527
0.0692551
0.19254
0.358773
0.455925
0.513503
0.524391
0.465405
0.00531765
0.00541213
0.00552243
0.00561115
0.00561465
0.00567917
0.00571947
0.00578244
0.00587468
0.00599935
0.00618661
0.00665545
0.00738385
0.00797861
0.0107823
0.0246608
0.0706736
0.19882
0.365458
0.454577
0.481928
0.428412
0.356961
0.00535963
0.00543955
0.00554459
0.00563242
0.00563289
0.00569623
0.00573492
0.00579591
0.00588149
0.00600495
0.0061921
0.00666676
0.00739844
0.00804417
0.0108144
0.0236809
0.067009
0.195737
0.35914
0.418336
0.392267
0.321674
0.254754
0.00539994
0.0054674
0.00556728
0.00565262
0.00565198
0.00571578
0.00575046
0.00581013
0.00588918
0.00601166
0.00620063
0.0066839
0.00742018
0.00809326
0.0105894
0.0213266
0.0581438
0.178658
0.319525
0.337259
0.296453
0.231905
0.178131
0.0054349
0.00549153
0.00558819
0.00567082
0.00566907
0.00573197
0.00576383
0.005822
0.00589521
0.00601583
0.00620577
0.00669337
0.00743438
0.00807691
0.0101241
0.0185012
0.0472563
0.14458
0.258592
0.258638
0.215557
0.162762
0.121836
0.00546777
0.00551656
0.00560872
0.0056885
0.00568737
0.00574882
0.00577758
0.00583414
0.00590105
0.00601929
0.00621041
0.00670161
0.00743701
0.00802854
0.00966742
0.0159142
0.0372154
0.111117
0.198155
0.18709
0.149097
0.109923
0.0802388
0.00549726
0.0055405
0.00563117
0.00570555
0.00570541
0.00576468
0.00579124
0.00584563
0.00590721
0.00602202
0.00621425
0.00671
0.00742852
0.00795581
0.00925431
0.0137157
0.0288618
0.0824884
0.144723
0.129132
0.099484
0.072118
0.0518646
0.00552791
0.00556677
0.00565291
0.00572273
0.00572519
0.0057809
0.00580589
0.00585744
0.00591322
0.00602413
0.00621735
0.0067167
0.00743649
0.00788883
0.00889011
0.011994
0.0222973
0.0595864
0.101644
0.0867895
0.0645986
0.046625
0.0339298
0.00555534
0.00559291
0.00567734
0.00574073
0.00574418
0.00579633
0.00582004
0.00586861
0.0059198
0.00602571
0.00621955
0.00671915
0.00742197
0.00780896
0.00859456
0.0106494
0.0174879
0.0426872
0.069135
0.0569693
0.0419542
0.0307857
0.0229598
0.00558436
0.00561971
0.00569984
0.00575682
0.00576458
0.0058124
0.00583573
0.00587979
0.00592634
0.00602699
0.00622107
0.00671868
0.00739504
0.00774486
0.00834028
0.00970167
0.014125
0.0307503
0.0465851
0.0376049
0.0277061
0.0211029
0.0165927
0.00560915
0.00564758
0.00572463
0.00577555
0.00578315
0.00582693
0.00584971
0.00589079
0.00593306
0.00602809
0.00622222
0.00671142
0.00737751
0.00766573
0.00813527
0.0089902
0.0118189
0.0225856
0.0314454
0.0255149
0.0195672
0.0156643
0.0133604
0.00563813
0.00567268
0.00574583
0.00579154
0.00580252
0.00584284
0.00586535
0.00590076
0.00594026
0.00602923
0.00622272
0.00670091
0.0073349
0.0076074
0.00796006
0.00850358
0.0103067
0.0171964
0.022065
0.0183822
0.014919
0.0125088
0.0114947
0.00566023
0.00570084
0.00577068
0.00580906
0.00582141
0.00585691
0.00587929
0.00591165
0.00594672
0.00603027
0.00622371
0.00668265
0.00730215
0.00752454
0.00782741
0.00816774
0.00939817
0.0137918
0.0164902
0.0145763
0.0123083
0.0109607
0.0106284
0.00568658
0.00572467
0.00578884
0.00582617
0.00583753
0.0058719
0.00589315
0.00592125
0.00595431
0.00603175
0.0062237
0.00666193
0.00726099
0.00746571
0.00767496
0.00790923
0.00884814
0.0118043
0.0133787
0.0122156
0.0115236
0.0109122
0.0106689
0.00571013
0.00574786
0.00581152
0.00584077
0.00585604
0.00588498
0.00590718
0.00593013
0.00596107
0.00603288
0.00622374
0.00664068
0.00721425
0.00739409
0.00759698
0.0077324
0.00846165
0.0105786
0.0117341
0.01147
0.0110411
0.0107241
0.0106292
0.00573062
0.0057733
0.00582968
0.00585872
0.00587235
0.00589986
0.00591861
0.00594108
0.00596769
0.00603507
0.0062238
0.00662354
0.00715703
0.00730962
0.00746051
0.00760337
0.00832251
0.00986609
0.010904
0.0111971
0.0108041
0.0105697
0.0105485
0.00575353
0.00579118
0.00584425
0.00587188
0.00588455
0.00591105
0.0059303
0.00594828
0.00597565
0.00603628
0.00622386
0.00660826
0.00715527
0.00730554
0.00744546
0.00760612
0.0082695
0.00961525
0.0108014
0.0109412
0.0107668
0.0105399
0.0105491
0.00577507
0.00581117
0.00586508
0.0058844
0.00590181
0.0059227
0.00594321
0.00595709
0.00598137
0.0060391
0.00622434
0.00659571
0.00714947
0.00729462
0.00742485
0.00759859
0.00820134
0.00950534
0.0107351
0.0110207
0.0108463
0.0105418
0.0103998
0.00577853
0.00582974
0.00587281
0.00590225
0.00591219
0.0059359
0.00594636
0.0059653
0.00598785
0.00604169
0.00622413
0.00658478
0.00712149
0.00725824
0.0073775
0.00759334
0.00820888
0.00943143
0.0105585
0.0109668
0.0108353
0.010589
0.0104875
0.00578292
0.00584492
0.00587646
0.00590328
0.00591842
0.00593689
0.00595347
0.00597264
0.00599578
0.00604145
0.00622297
0.00658304
0.00709977
0.00725422
0.00737775
0.00758998
0.00820542
0.00943897
0.0105799
0.0109381
0.0110023
0.0106419
0.0104609
0.00579373
0.00584484
0.00588165
0.00590525
0.00592282
0.00594275
0.00595389
0.00597226
0.0059958
0.00604197
0.00622121
0.00658096
0.00710665
0.00721864
0.0073397
0.00754808
0.00819757
0.00942419
0.0105299
0.0110623
0.0110152
0.0105575
0.0106443
0.00580216
0.00584606
0.00588477
0.00590602
0.00592243
0.00594088
0.00595493
0.00597274
0.00599645
0.00604411
0.00621947
0.00657819
0.00710594
0.00722716
0.00736023
0.00755487
0.00817933
0.00944614
0.0105622
0.0109881
0.0109962
0.0106592
0.0106702
0.00580038
0.00584795
0.00588452
0.00591005
0.00592309
0.00594404
0.00595624
0.00597329
0.00599753
0.00604637
0.00621682
0.00657347
0.00709004
0.00720785
0.00736119
0.00755219
0.0082052
0.0096204
0.0105937
0.0110775
0.0109741
0.0108294
0.0106317
0.00580171
0.00584783
0.0058846
0.00591543
0.00592456
0.00594368
0.0059563
0.00597453
0.00600025
0.00604494
0.00621484
0.00657576
0.00708737
0.00720335
0.00735581
0.00755583
0.00825996
0.010043
0.0108503
0.0110651
0.0110973
0.0110277
0.0107714
0.0058019
0.00585002
0.00588459
0.00591268
0.00592456
0.00594359
0.00595747
0.00597807
0.00599918
0.00604538
0.00621155
0.00657166
0.00706706
0.00721323
0.00736106
0.00755142
0.0084868
0.0105529
0.0111517
0.0112472
0.0112359
0.0111812
0.0109307
0.0058032
0.00584846
0.00588439
0.00591441
0.00592756
0.00594362
0.00595784
0.00597556
0.00599907
0.00604756
0.00620773
0.00657406
0.00704412
0.00723119
0.00735138
0.00755842
0.00866938
0.011166
0.011779
0.0115078
0.011517
0.0114371
0.0111423
0.00580384
0.00585116
0.00588436
0.00591013
0.00592684
0.00594352
0.00595745
0.00597528
0.00599935
0.00604577
0.00620339
0.00657381
0.00705078
0.00723352
0.00735879
0.00755752
0.00911445
0.0117225
0.0122656
0.0120204
0.0117652
0.0115886
0.0112972
0.00580412
0.0058519
0.00588396
0.0059093
0.0059262
0.00594346
0.00595741
0.00597765
0.00600038
0.00604585
0.0061985
0.00657352
0.00705218
0.00724455
0.00733908
0.00753905
0.00949537
0.0123591
0.0127639
0.0124073
0.0121857
0.0118439
0.0114926
0.00580692
0.00585258
0.00588408
0.00590806
0.00592963
0.00594468
0.00596026
0.00597456
0.00600122
0.00604562
0.00619312
0.00657844
0.00703623
0.00725144
0.00733422
0.0075894
0.00995677
0.01279
0.0132599
0.0129177
0.0124919
0.0120124
0.0116832
0.00579952
0.00584697
0.00588835
0.00590708
0.0059258
0.00594054
0.00595711
0.00597438
0.005998
0.00604508
0.00618781
0.00657833
0.00704892
0.00726944
0.00737836
0.00759455
0.0104022
0.013134
0.0136194
0.0132633
0.0129298
0.0123633
0.0119291
0.00580492
0.00584998
0.00588322
0.00590522
0.00592371
0.00594422
0.00595634
0.00597589
0.0059996
0.00604481
0.00618289
0.00657788
0.00704832
0.0072747
0.00738643
0.00757197
0.010884
0.0135499
0.0138128
0.0136697
0.0132718
0.0125707
0.0122169
0.00579801
0.00584335
0.00588244
0.0059042
0.00592345
0.00594051
0.00595537
0.00597559
0.00599673
0.00604535
0.00617939
0.00657887
0.00704653
0.00728903
0.00738101
0.00761268
0.0113219
0.0137866
0.013906
0.0138228
0.0136802
0.0129777
0.0124353
0.00580008
0.00585117
0.00587962
0.00590403
0.00592532
0.00594165
0.005955
0.00597535
0.00599596
0.00604251
0.00617602
0.00657888
0.00706567
0.00726567
0.00743123
0.00769058
0.0121268
0.0140776
0.014098
0.0140643
0.0139423
0.0134497
0.0128126
0.00580051
0.0058449
0.0058776
0.00590228
0.00592633
0.0059364
0.00595426
0.00597136
0.00599483
0.00604197
0.0061741
0.00657687
0.00704657
0.00729833
0.00743672
0.00771208
0.0122258
0.0143307
0.0141836
0.0142719
0.0140577
0.013771
0.0131587
0.0057926
0.00584866
0.00587555
0.00590267
0.00592042
0.00593526
0.00595635
0.00597062
0.00599501
0.0060414
0.00617182
0.00657868
0.00705637
0.0072921
0.00743092
0.00770329
0.0122725
0.0143932
0.0142512
0.0142979
0.0141916
0.0139948
0.0134677
0.00578259
0.0058491
0.00587444
0.00589552
0.00592023
0.00593478
0.00595768
0.00596521
0.00599106
0.00604101
0.00617062
0.00658621
0.00705823
0.00733242
0.00741337
0.00772377
0.0123532
0.014251
0.0143155
0.0142636
0.0142814
0.0141262
0.0136727
0.00577815
0.00584647
0.00587434
0.0058941
0.00591966
0.00593519
0.00595388
0.00596748
0.00598957
0.0060413
0.00616895
0.00659251
0.00703918
0.00729537
0.0074381
0.0078062
0.0124098
0.0140165
0.0144194
0.0144643
0.0144905
0.0144144
0.0140118
0.00577589
0.00584379
0.00587852
0.00589646
0.00591928
0.00592893
0.00595251
0.00596292
0.00598878
0.00604064
0.00616799
0.00660189
0.00705239
0.00732195
0.00746762
0.0078718
0.0121896
0.0134138
0.0143457
0.0144602
0.0145439
0.0144559
0.014327
0.00578114
0.00583854
0.00587963
0.00589673
0.00592287
0.00592798
0.00594888
0.00596514
0.00598297
0.00603825
0.00616706
0.00660923
0.00704614
0.00729998
0.00750708
0.00794748
0.0116455
0.0127912
0.0141883
0.0142085
0.0142978
0.0142086
0.0141626
0.00577335
0.00583429
0.00587683
0.00589297
0.00592158
0.00593001
0.00594682
0.00596453
0.00598147
0.00603603
0.00616598
0.0066197
0.00704514
0.00730445
0.00757481
0.00804485
0.0112366
0.0125391
0.0141623
0.013582
0.0135704
0.0135586
0.01366
0.00577282
0.00582708
0.0058737
0.00589068
0.00591976
0.00593085
0.00594609
0.00596125
0.00598409
0.00603496
0.00616541
0.00662813
0.00705252
0.00731405
0.00758494
0.00812615
0.0108753
0.0121836
0.0140367
0.0133154
0.0129813
0.0134395
0.0131216
0.00576906
0.00582059
0.00586461
0.00587937
0.00591464
0.00592762
0.00593855
0.00595779
0.00597843
0.00602992
0.00616507
0.0066354
0.00708221
0.00734738
0.00757734
0.00823547
0.0107241
0.0120223
0.0133224
0.0134597
0.0129794
0.0132689
0.0130923
0.0057627
0.00581439
0.00585195
0.00587602
0.00591011
0.0059244
0.00594275
0.00595441
0.00598384
0.00603439
0.00616372
0.00663885
0.00709609
0.00737013
0.00759094
0.00829879
0.0106438
0.0118649
0.0126444
0.0131298
0.012938
0.0129285
0.012927
0.00574978
0.00580736
0.0058485
0.00587478
0.0059054
0.00592057
0.00593614
0.00594607
0.00597897
0.00603134
0.00616642
0.00665274
0.0071309
0.00740472
0.00767053
0.00838741
0.0106959
0.0119017
0.0126754
0.0125878
0.0127672
0.0128838
0.0128786
0.00574558
0.00579222
0.00584955
0.00586317
0.00589807
0.00591176
0.00593876
0.00594352
0.00598177
0.00603335
0.00616092
0.00663386
0.00713698
0.00743358
0.00769932
0.00837462
0.0104447
0.011658
0.012304
0.0124223
0.01249
0.0124349
0.0125259
0.00573761
0.00578815
0.00584343
0.00586998
0.00589104
0.00589868
0.00593567
0.00594434
0.0059795
0.00602994
0.00615373
0.00659377
0.0071348
0.0074489
0.00772013
0.00835497
0.0101423
0.0113313
0.0118765
0.0122085
0.0124221
0.0124299
0.0123205
0.00573197
0.0057908
0.0058289
0.00585745
0.00588423
0.00589436
0.00592924
0.00593875
0.0059735
0.00602762
0.00614421
0.00654576
0.00711641
0.00745626
0.00773183
0.0083456
0.00996494
0.011172
0.0116933
0.0120251
0.0123215
0.0122501
0.0121473
0.00573538
0.00578524
0.0058076
0.00586226
0.00587467
0.00589555
0.00592025
0.00592595
0.00596627
0.006021
0.00613204
0.00649516
0.00707722
0.00746434
0.00773755
0.00839019
0.00990193
0.0110402
0.011635
0.011791
0.0122271
0.0124939
0.012256
0.00573261
0.00577422
0.00580038
0.00585699
0.00585359
0.0058918
0.00590804
0.00590685
0.0059568
0.00601105
0.00611753
0.00644539
0.00702384
0.00745862
0.00777955
0.00840015
0.00977763
0.0109988
0.011555
0.0118175
0.0122101
0.0124399
0.012424
0.00571961
0.00575711
0.00580333
0.00584702
0.00584637
0.00588336
0.00588643
0.00589924
0.00594672
0.00599974
0.00610132
0.00639669
0.00695852
0.00745785
0.00783035
0.00851958
0.00981961
0.0109547
0.011425
0.0119597
0.0123528
0.0126001
0.0125147
0.00570273
0.00572833
0.00579574
0.0058326
0.00584746
0.00587056
0.00587439
0.00589893
0.00593381
0.0059854
0.00608325
0.00635043
0.00688346
0.0074443
0.00790987
0.0086328
0.0100103
0.0109565
0.0114552
0.0119845
0.0125141
0.0125907
0.0125119
0.005682
0.00568902
0.00578114
0.00581613
0.00583608
0.00585481
0.00585289
0.00588857
0.00591928
0.00596982
0.00606395
0.00630607
0.00680151
0.00741825
0.00800339
0.00883848
0.0102443
0.0112091
0.0117453
0.0121272
0.0124271
0.0128111
0.0125565
0.00565937
0.00567469
0.00576239
0.00579494
0.00581641
0.00583363
0.00584868
0.00587139
0.00590071
0.00595052
0.00604176
0.00626285
0.00671459
0.00738543
0.00793878
0.00890708
0.0103615
0.0116576
0.0120725
0.0126456
0.0125688
0.0129891
0.0127246
0.0056345
0.00567647
0.00573863
0.00577132
0.00579315
0.00581125
0.0058308
0.00585054
0.00588032
0.00592959
0.00601791
0.00622051
0.00663155
0.00731378
0.00787137
0.00885565
0.0108627
0.0120425
0.0129627
0.0131509
0.0130035
0.0129983
0.0130302
0.00560167
0.00565465
0.0057099
0.00574156
0.00576364
0.00578342
0.00580357
0.00582502
0.0058549
0.00590324
0.00598859
0.00617502
0.00654852
0.00721094
0.00782282
0.00884075
0.0109457
0.012172
0.0137052
0.0138779
0.013603
0.0135053
0.0134197
0.00556522
0.00562345
0.00567638
0.00570928
0.00573184
0.00575439
0.00577259
0.00579645
0.00582719
0.0058747
0.00595699
0.00612844
0.00646546
0.00705913
0.00782653
0.00899841
0.0110199
0.0132592
0.0144316
0.0146315
0.014679
0.014465
0.0143244
0.00552111
0.00558078
0.00563526
0.00566892
0.00569219
0.0057173
0.0057336
0.00576085
0.00579202
0.00583809
0.00591636
0.00607356
0.00637055
0.00688381
0.00770619
0.00895392
0.0110747
0.0139122
0.0156331
0.0156205
0.0158843
0.015527
0.0155633
0.00547448
0.00553376
0.00559046
0.00562612
0.00565015
0.00567782
0.00569316
0.00572181
0.00575412
0.00579891
0.00587297
0.00601665
0.00628221
0.00670806
0.00745622
0.00876126
0.0108608
0.0140717
0.0164371
0.0165096
0.0169365
0.0170652
0.0166654
0.00541827
0.00547585
0.00553315
0.00557222
0.00559711
0.00562675
0.00564281
0.00567317
0.00570505
0.00574775
0.00581624
0.00594481
0.00618935
0.0065285
0.0072136
0.00848824
0.010566
0.0140499
0.0174647
0.0203667
0.0191506
0.0183186
0.0180867
0.00535844
0.00541533
0.00547234
0.00551542
0.00554137
0.00557242
0.00559054
0.00562171
0.00565338
0.00569407
0.0057567
0.00586969
0.00609783
0.00636005
0.00693092
0.0082096
0.00993239
0.013321
0.0173192
0.0198531
0.0238549
0.0216043
0.0203732
0.00528546
0.00534189
0.00539678
0.00544398
0.00547072
0.00550259
0.00552367
0.00555514
0.00558539
0.00562427
0.0056785
0.00577408
0.00598035
0.00619761
0.00668816
0.00789616
0.00962685
0.0120023
0.015738
0.0188145
0.0227602
0.0236295
0.0220897
0.00520855
0.00526639
0.00531798
0.00537007
0.00539792
0.00543018
0.00545466
0.00548554
0.00551546
0.00555288
0.00559979
0.00567837
0.00585064
0.00603084
0.00639728
0.0075328
0.00922977
0.0114941
0.0151602
0.019408
0.0216573
0.0250253
0.0283399
0.00511487
0.00517383
0.00522025
0.00527625
0.00530556
0.00533789
0.00536491
0.0053946
0.00542284
0.00545833
0.00549845
0.00556036
0.00569602
0.00584504
0.00609842
0.00691684
0.00868248
0.0109818
0.0149706
0.0191058
0.0221836
0.023065
0.0272179
0.00501843
0.00507986
0.00512257
0.00518124
0.00521279
0.0052456
0.00527452
0.0053029
0.00533048
0.00536415
0.00540118
0.00544736
0.00554623
0.0056736
0.00585053
0.00633067
0.00788162
0.00998579
0.0135922
0.0193089
0.0230856
0.0219591
0.024329
0.00490045
0.00496314
0.00500231
0.00506069
0.00509382
0.00512688
0.00515641
0.00518274
0.0052079
0.0052379
0.00527319
0.00530717
0.00537321
0.00549237
0.00560319
0.00585316
0.00670367
0.00895587
0.012316
0.0169271
0.0233243
0.0225741
0.0214304
0.00478316
0.00484755
0.00488745
0.00494337
0.00497769
0.00501241
0.00504193
0.00506669
0.00509073
0.00511847
0.00514991
0.00517711
0.0052222
0.00531857
0.0054056
0.00552871
0.00594236
0.00742779
0.0103376
0.0141671
0.0240746
0.0216277
0.0208518
0.0046375
0.00470184
0.00474249
0.00479226
0.00482621
0.00486087
0.00489004
0.00491261
0.00493295
0.00495784
0.00498315
0.00500991
0.00503742
0.00509921
0.00518227
0.00524809
0.00543366
0.00604547
0.00818379
0.0115256
0.0166504
0.0290408
0.0228809
0.0044998
0.00456388
0.00460958
0.00465228
0.00468467
0.00472131
0.0047495
0.00477129
0.00479038
0.00481453
0.00483449
0.0048595
0.00487934
0.00491731
0.0049874
0.00504172