/*--------------------------------*- C++ -*----------------------------------*\
  =========                 |
  \\      /  F ield         | OpenFOAM: The Open Source CFD Toolbox
   \\    /   O peration     | Website:  https://openfoam.org
    \\  /    A nd           | Version:  7
     \\/     M anipulation  |
\*---------------------------------------------------------------------------*/
FoamFile
{
    version     2.0;
    format      ascii;
    class       volScalarField;
    location    "50";
    object      nut;
}
// * * * * * * * * * * * * * * * * * * * * * * * * * * * * * * * * * * * * * //

dimensions      [0 2 -1 0 0 0 0];

internalField   nonuniform List<scalar> 
12842
(
0.00180936
0.00179927
0.0017802
0.00177711
0.00176617
0.00175774
0.00175949
0.00175594
0.00176042
0.00175581
0.00176136
0.00175808
0.00176472
0.00176869
0.00110459
0.000601977
0.000379746
0.000267011
0.000200004
0.00015724
0.000127695
0.000107685
9.35284e-05
0.00180521
0.00179625
0.00178396
0.00179183
0.0017811
0.00176816
0.00176348
0.00175897
0.00176119
0.00175601
0.0017612
0.0017584
0.00176486
0.0017696
0.00108562
0.000593727
0.000375332
0.000264674
0.000198976
0.000157068
0.000127996
0.000108605
9.43818e-05
0.00181099
0.00178882
0.00176391
0.00177157
0.00177661
0.00177205
0.00175612
0.00175568
0.0017591
0.00175608
0.00176078
0.00175875
0.00176496
0.00177076
0.0010707
0.000589665
0.00037525
0.000265174
0.000200091
0.0001581
0.000129233
0.000110505
9.58599e-05
0.00180683
0.00179937
0.00177683
0.00177488
0.00177573
0.00177512
0.0017616
0.00175462
0.00175617
0.00175575
0.00176074
0.0017604
0.00176578
0.00177168
0.00104594
0.000580354
0.000371402
0.000263499
0.000199244
0.000157815
0.000129556
0.00011137
9.68023e-05
0.00180607
0.00178552
0.00176785
0.00176767
0.00176948
0.00177555
0.00176121
0.00175664
0.00175413
0.00175444
0.00175872
0.0017597
0.00176545
0.00177393
0.00102098
0.000571142
0.000368933
0.000263016
0.000199602
0.000158636
0.000130632
0.00011313
9.85893e-05
0.0018079
0.00178882
0.00177362
0.00176902
0.00176836
0.00177482
0.00176205
0.00175851
0.00175378
0.0017555
0.00175986
0.00176073
0.00176571
0.00177594
0.00100097
0.000564595
0.000366671
0.00026333
0.00020032
0.000160395
0.000132461
0.000115785
0.000101008
0.00180545
0.0017842
0.00176812
0.00176571
0.00176679
0.00177264
0.00176078
0.00175967
0.00175273
0.00175442
0.00175826
0.0017607
0.00176618
0.00177851
0.00100551
0.00056966
0.000372245
0.000268989
0.000205351
0.000164969
0.000136873
0.000120274
0.00010494
0.00180459
0.00178535
0.00176861
0.00176537
0.00176549
0.00177013
0.00176186
0.00176098
0.00175479
0.00175589
0.00175922
0.00176111
0.0017678
0.00178181
0.000995515
0.000571359
0.000376434
0.000274602
0.000210322
0.000169537
0.000140814
0.00012452
0.000108771
0.001804
0.00178148
0.00176746
0.001765
0.00176616
0.00176613
0.00175983
0.00176014
0.00175457
0.00175667
0.00175831
0.00176133
0.0017689
0.00178808
0.000991479
0.000578442
0.000386607
0.000285013
0.000219116
0.000177551
0.000147676
0.000130929
0.000113864
0.00180085
0.00178497
0.00176402
0.00176239
0.00176665
0.00176363
0.0017604
0.00175937
0.00175472
0.00175853
0.0017588
0.0017619
0.00177327
0.00179944
0.00101395
0.000593148
0.000397657
0.000294543
0.000226751
0.000184389
0.00015338
0.000136305
0.000118277
0.00180024
0.00177896
0.0017673
0.00176263
0.00176596
0.00176135
0.0017591
0.00175776
0.00175507
0.00175832
0.00175929
0.00176193
0.00177559
0.0018074
0.00100984
0.000600174
0.00040774
0.000303231
0.000233746
0.000190861
0.0001589
0.00014116
0.000122257
0.00179876
0.00178024
0.00176346
0.00176206
0.00176593
0.00175976
0.00175936
0.00175692
0.00175474
0.00175752
0.00175897
0.00176517
0.00178373
0.00182456
0.00101811
0.000615361
0.000420082
0.000313777
0.000242197
0.00019788
0.000164646
0.000146281
0.000126589
0.00179696
0.00177698
0.0017659
0.00176202
0.00176499
0.00175745
0.00175799
0.0017558
0.00175493
0.00175805
0.00175935
0.00177371
0.00180186
0.00184404
0.00103843
0.000636219
0.000438404
0.000327175
0.000251953
0.00020574
0.00017089
0.000151392
0.000130923
0.00179674
0.00177416
0.00176355
0.00176216
0.0017645
0.00175665
0.00175729
0.00175555
0.00175498
0.00175815
0.00176518
0.00179371
0.00182751
0.00186708
0.00107716
0.000666657
0.000459085
0.000342167
0.000263151
0.000214186
0.00017751
0.000156772
0.000135381
0.00179448
0.00177332
0.00176552
0.00176236
0.00176286
0.00175466
0.00175566
0.00175549
0.0017572
0.00175689
0.00177622
0.00181529
0.0018524
0.00188461
0.00111932
0.000699225
0.000484263
0.000359836
0.00027526
0.000223341
0.000184376
0.000162153
0.000139992
0.00179497
0.00176904
0.00176348
0.00176259
0.00176187
0.00175373
0.00175505
0.00175588
0.00175629
0.00176135
0.0017962
0.00184193
0.00186973
0.00190057
0.00117479
0.000740892
0.000511576
0.000378553
0.000288929
0.000233221
0.000191927
0.000167878
0.000145018
0.00179265
0.00176849
0.00176445
0.00176217
0.0017596
0.00175185
0.0017543
0.00175535
0.00175691
0.00176724
0.00181527
0.00186019
0.00188518
0.00191213
0.00123317
0.000784153
0.000544051
0.000401525
0.000304268
0.000244614
0.00020039
0.000174146
0.000150469
0.00179329
0.00176461
0.00176309
0.00176213
0.00175753
0.001751
0.00175424
0.00175708
0.00176337
0.00178524
0.00183786
0.00187547
0.00189225
0.00192009
0.00130316
0.000837816
0.000580754
0.000426547
0.000322193
0.000257343
0.000210163
0.000181295
0.00015678
0.00179165
0.00176402
0.00176278
0.00176056
0.00175628
0.00174968
0.0017546
0.001761
0.00177398
0.00180341
0.00185231
0.00188506
0.0018982
0.00192736
0.0013767
0.000896086
0.000626211
0.000459585
0.000344278
0.000273371
0.000222234
0.000190315
0.000164214
0.00179181
0.00176123
0.00175925
0.00176075
0.00175264
0.00174939
0.00175459
0.00177103
0.00179436
0.00182372
0.00186361
0.00188957
0.0018973
0.00193057
0.00146316
0.000967316
0.000680163
0.000497757
0.000370868
0.00029212
0.000237011
0.000200775
0.000173016
0.00179096
0.00176068
0.00175837
0.00175847
0.00175173
0.0017483
0.0017545
0.00178593
0.00180379
0.00183301
0.00187242
0.00189081
0.00189796
0.00193441
0.00154587
0.00104495
0.000748004
0.000548939
0.000406214
0.000316154
0.000255998
0.000214266
0.000184344
0.00179118
0.001759
0.00175369
0.00175746
0.00175133
0.00174915
0.00175632
0.00180544
0.00181379
0.00184227
0.00187555
0.00188692
0.00189412
0.00193696
0.00165789
0.00114581
0.000837987
0.000616295
0.000451631
0.00034658
0.000279306
0.000230804
0.000198288
0.00179097
0.00175858
0.00175027
0.00175691
0.00174796
0.00175384
0.00175598
0.00181028
0.0018186
0.00184634
0.00187719
0.00188363
0.0018934
0.00193762
0.00170341
0.0012367
0.000952009
0.000710871
0.000514777
0.000384282
0.000306214
0.00025001
0.00021495
0.0017911
0.00175747
0.00174459
0.00175609
0.00174842
0.00175988
0.00175917
0.00181527
0.00182449
0.0018515
0.00187478
0.00187682
0.00189011
0.00194125
0.00173441
0.00132305
0.0011042
0.000855134
0.000603201
0.000436321
0.000339379
0.000274678
0.000237354
0.00179289
0.00175673
0.00174255
0.00175427
0.00175225
0.00176941
0.00176803
0.00181901
0.00182945
0.00185278
0.00187175
0.00187252
0.00189025
0.00194051
0.00185479
0.00146884
0.00133059
0.00108057
0.000735089
0.00050185
0.000377788
0.000303672
0.000263519
0.00179251
0.00175593
0.00173818
0.00175714
0.001762
0.00177864
0.00177559
0.00182069
0.00183013
0.00185271
0.00186676
0.00186684
0.00188853
0.00194302
0.00188586
0.00157081
0.0016466
0.00151283
0.00091753
0.000573732
0.000414832
0.000335476
0.000291692
0.00179494
0.00175494
0.00173616
0.0017674
0.00177338
0.00178731
0.00177913
0.00182074
0.0018327
0.00185087
0.00186181
0.0018634
0.00188954
0.00194173
0.00192099
0.00165543
0.00174919
0.00163407
0.00116933
0.000646243
0.000458275
0.000373416
0.000319139
0.0017946
0.00175403
0.00173625
0.00178276
0.00178413
0.00179202
0.00178279
0.00181971
0.00183074
0.00184821
0.00185645
0.00185964
0.00189013
0.00194345
0.00191789
0.00170528
0.00170127
0.00157587
0.00137523
0.000706761
0.000494155
0.000396052
0.00032819
0.00179709
0.00175271
0.00174735
0.00180461
0.00178877
0.00179663
0.0017828
0.00181959
0.00183124
0.00184503
0.00185213
0.00185812
0.00189206
0.00194266
0.00190604
0.00167427
0.00168904
0.00154331
0.00131511
0.000700215
0.000491064
0.000407833
0.000354598
0.00179678
0.00175453
0.0017613
0.00181465
0.00179833
0.00179921
0.0017862
0.00181857
0.00182936
0.00184214
0.00184821
0.0018569
0.00189533
0.00194386
0.00186498
0.00159789
0.00163724
0.00147684
0.00104158
0.000636364
0.000490043
0.00043682
0.000378404
0.00179978
0.00175152
0.0017776
0.00183137
0.00180084
0.00180092
0.00178606
0.00181917
0.00182847
0.00183925
0.00184551
0.00185728
0.00189799
0.00194367
0.00180489
0.00145628
0.00143852
0.00125444
0.000810599
0.00056175
0.000487824
0.000469702
0.000423194
0.00179828
0.00175753
0.00178808
0.00183787
0.00180526
0.00180319
0.00178997
0.00181952
0.00182719
0.00183697
0.00184331
0.00185818
0.0019031
0.00194375
0.00171586
0.00132579
0.00116767
0.000934592
0.000661973
0.000532972
0.000501746
0.000540627
0.000842626
0.00180038
0.0017662
0.00180115
0.00184731
0.0018111
0.00180412
0.00179182
0.00182018
0.00182649
0.00183527
0.00184211
0.00185981
0.0019064
0.00194478
0.00162569
0.00118219
0.000953958
0.000742176
0.000581495
0.000546972
0.000649356
0.00190986
0.00319716
0.00180325
0.00179103
0.00180756
0.00185018
0.00181222
0.00180598
0.00179541
0.00182072
0.00182555
0.00183369
0.00184127
0.00186225
0.00191236
0.0019427
0.0015353
0.00107467
0.000815965
0.000617616
0.000541013
0.00064711
0.00159426
0.00455502
0.00607776
0.00180207
0.00180846
0.00181611
0.00185482
0.00181926
0.00180687
0.00179963
0.00182263
0.0018256
0.00183285
0.0018412
0.00186443
0.00191601
0.00194466
0.00143687
0.000959285
0.000692095
0.000540539
0.000532135
0.000890996
0.00283255
0.0035832
0.00425386
0.00180209
0.00182565
0.00181975
0.00185546
0.00182178
0.0018089
0.00180339
0.00182206
0.00182529
0.00183184
0.00184131
0.00186796
0.00192257
0.00194139
0.00136308
0.000880331
0.000619437
0.000497003
0.000556961
0.000983891
0.00232221
0.00228147
0.00371184
0.00180595
0.00183397
0.00182333
0.00185682
0.00182597
0.0018086
0.00180758
0.0018243
0.00182564
0.00183137
0.00184201
0.00187038
0.00192612
0.00194211
0.00127425
0.000796192
0.000555812
0.000476307
0.000544641
0.00102665
0.00149642
0.00294434
0.00378926
0.0018143
0.00183922
0.00182644
0.00185673
0.00183019
0.00181181
0.00181169
0.00182493
0.0018255
0.00183062
0.00184284
0.00187442
0.00193335
0.00193999
0.00121603
0.000750266
0.000529874
0.000454242
0.000495595
0.000862584
0.00133176
0.00305564
0.00365966
0.00182142
0.00184297
0.00182624
0.00185615
0.00183099
0.00180952
0.00181488
0.00182455
0.00182584
0.00183034
0.00184393
0.00187726
0.00193706
0.00193805
0.00114813
0.000699633
0.000498331
0.000417827
0.000422883
0.000875317
0.00178631
0.00305809
0.00351453
0.00182626
0.00184398
0.00183047
0.00185513
0.00183409
0.00181216
0.00181705
0.00182685
0.00182547
0.00182989
0.00184536
0.00188126
0.00194446
0.00193702
0.00111557
0.000681492
0.000485129
0.00038503
0.000396142
0.00085141
0.00191002
0.00288583
0.00322914
0.00182296
0.00184308
0.00182653
0.00185328
0.00183352
0.00181061
0.00182041
0.00182527
0.00182623
0.00182978
0.00184643
0.00188479
0.0019491
0.00193233
0.00107143
0.000662783
0.000468851
0.000348318
0.00032487
0.000815616
0.00178476
0.00272271
0.00323554
0.00182289
0.00184331
0.00183093
0.0018514
0.00183321
0.00180879
0.00181864
0.00182391
0.00182746
0.00182988
0.00184827
0.00188868
0.00195592
0.00193132
0.00106429
0.000650072
0.0004564
0.000323524
0.00031191
0.00084815
0.00156226
0.00236799
0.00345445
0.00181811
0.00183922
0.00182572
0.00184804
0.0018314
0.0018123
0.00182285
0.00182762
0.00182886
0.00183028
0.00184919
0.00189263
0.00196151
0.00192238
0.00104416
0.000669389
0.000453454
0.000302407
0.000303631
0.000793069
0.00184787
0.00269641
0.0036804
0.00181515
0.00183968
0.00182652
0.00184475
0.00183036
0.00180828
0.0018205
0.00182185
0.00183007
0.00183125
0.00185091
0.001897
0.00196775
0.00192234
0.00106548
0.000665305
0.000455097
0.000298753
0.000305231
0.000694239
0.00183802
0.0024116
0.00324872
0.00181237
0.00183488
0.00182439
0.00183994
0.00183009
0.00181055
0.00181634
0.00181798
0.00183138
0.00183232
0.00185201
0.00190085
0.00197281
0.00190638
0.00106519
0.000693771
0.000463323
0.000308582
0.000376637
0.00126896
0.00322494
0.00316917
0.00394818
0.00180939
0.0018345
0.00182337
0.00183654
0.00181929
0.00180952
0.00181361
0.0018171
0.00183168
0.00183372
0.00185311
0.00190595
0.00197946
0.00190597
0.0011114
0.000736204
0.000500714
0.000393894
0.000685117
0.00344682
0.0037051
0.00396415
0.00437746
0.00181013
0.00182891
0.00182289
0.00183271
0.00181192
0.00180835
0.00181184
0.00181772
0.00183302
0.00183513
0.00185465
0.00190988
0.00198148
0.00188648
0.00114273
0.000777328
0.000570178
0.000538134
0.00170014
0.00376319
0.00390134
0.00426202
0.00465877
0.00180885
0.00182823
0.00182364
0.00182923
0.00181079
0.0018043
0.00180848
0.00181724
0.00183313
0.0018363
0.00185541
0.00191523
0.00198888
0.00187743
0.00119649
0.000895637
0.000769762
0.00155724
0.00381433
0.0038177
0.00400429
0.00442358
0.00492874
0.00181255
0.00182262
0.00182558
0.0018271
0.00181187
0.0018051
0.00180602
0.00181737
0.00183343
0.00183761
0.00185676
0.00191931
0.00198884
0.00186287
0.00124777
0.00111406
0.00154636
0.00294388
0.00356767
0.00371988
0.00415918
0.00452615
0.00558942
0.00181381
0.00182074
0.00182471
0.00182508
0.0018118
0.00180721
0.00180527
0.00181707
0.00183362
0.00183859
0.00185802
0.00192455
0.00199145
0.00184251
0.0013092
0.00145059
0.00206479
0.00287318
0.00332903
0.00386039
0.00420563
0.00447773
0.00554042
0.0018181
0.00181767
0.00182514
0.00182525
0.00181329
0.00181011
0.00180762
0.00181808
0.00183374
0.00183931
0.0018583
0.00192777
0.00199427
0.00182589
0.00145555
0.00161632
0.00203746
0.00287424
0.00344002
0.00404681
0.00427288
0.00458229
0.0050768
0.00182186
0.00181609
0.00182436
0.00182516
0.00181456
0.00181233
0.00181016
0.00181861
0.00183358
0.00183985
0.00185955
0.00193143
0.0019909
0.00181362
0.00154684
0.00160392
0.00196483
0.00282428
0.0034809
0.00399993
0.00416199
0.00449552
0.00428951
0.00182483
0.00181652
0.00182375
0.00182743
0.00181582
0.00181454
0.00181271
0.00182007
0.00183335
0.00184023
0.00185943
0.00193366
0.0019916
0.00179622
0.0015383
0.00153503
0.00189807
0.00275171
0.00346638
0.00393571
0.00415438
0.00410999
0.0034457
0.00182855
0.00181798
0.00182236
0.00182887
0.0018166
0.00181693
0.00181477
0.00182157
0.00183322
0.00184052
0.0018604
0.00193636
0.00198921
0.00177643
0.00150241
0.00146669
0.00182755
0.00268255
0.00346393
0.00391506
0.00389032
0.0033878
0.00272605
0.00183026
0.00182
0.00182102
0.00183209
0.00181669
0.00181848
0.00181628
0.00182322
0.00183325
0.00184063
0.0018602
0.00193762
0.00198882
0.00173752
0.00143367
0.00135892
0.00169241
0.00257899
0.00338903
0.00360595
0.00323924
0.00274425
0.00214683
0.00183252
0.00182292
0.00181952
0.00183422
0.00181705
0.00182046
0.00181751
0.00182531
0.00183327
0.00184106
0.00186067
0.0019394
0.00198805
0.00172089
0.00135638
0.0012106
0.00147892
0.00232188
0.00303373
0.00303239
0.00270954
0.00229073
0.00176013
0.00183308
0.00182471
0.00181914
0.00183609
0.00181699
0.00182122
0.00181815
0.00182662
0.00183313
0.00184125
0.00186088
0.00194052
0.00198994
0.00172964
0.00129628
0.00108783
0.00128503
0.00191477
0.00260083
0.00263736
0.00230302
0.00193002
0.00143575
0.00183397
0.00182711
0.00181873
0.00183727
0.00181764
0.00182219
0.00181867
0.00182823
0.00183284
0.00184128
0.00186124
0.00194136
0.00198948
0.00171332
0.0012422
0.00100634
0.00112479
0.00158258
0.00226083
0.00226206
0.00192847
0.00159207
0.00114925
0.00183375
0.00182798
0.00181971
0.00183753
0.00181785
0.00182226
0.00181898
0.00182879
0.00183239
0.00184108
0.00186146
0.0019427
0.00198622
0.00169706
0.00121314
0.000944099
0.000991612
0.00133639
0.00195918
0.00191243
0.00158801
0.00127515
0.000914243
0.00183369
0.00182953
0.00182019
0.00183754
0.00181873
0.00182235
0.00181921
0.00182978
0.00183195
0.00184063
0.00186235
0.00194355
0.00198914
0.00168599
0.001208
0.000914788
0.000888015
0.00114537
0.00169068
0.00160467
0.0012879
0.00100852
0.000729402
0.00183292
0.00182985
0.00182206
0.00183689
0.00181909
0.00182208
0.00181932
0.00182955
0.00183137
0.00183994
0.00186289
0.00194345
0.00198624
0.0016825
0.00121741
0.000898239
0.000814497
0.00100498
0.00144438
0.00132257
0.00104606
0.000794897
0.000560972
0.00183273
0.0018302
0.00182331
0.00183582
0.00182002
0.00182174
0.00181964
0.00182981
0.00183092
0.0018391
0.00186325
0.00194328
0.00198221
0.00168867
0.00124159
0.00090951
0.000770828
0.000899108
0.00123477
0.00108466
0.000838244
0.000609063
0.0004085
0.00183076
0.00183076
0.00182529
0.00183474
0.00182041
0.00182137
0.0018195
0.00182921
0.00183038
0.0018381
0.00186346
0.00194113
0.00198098
0.0016966
0.00127444
0.000931081
0.00074948
0.000816564
0.00104935
0.000893401
0.00067526
0.000452324
0.000310563
0.00183133
0.00182962
0.00182666
0.00183332
0.00182086
0.00182104
0.0018198
0.0018286
0.00182996
0.00183702
0.00186358
0.00193855
0.0019742
0.00171317
0.00131187
0.000968907
0.000746433
0.000751559
0.00090348
0.000750813
0.000528465
0.000364096
0.000261409
0.00182856
0.00183055
0.00182853
0.00183176
0.00182193
0.00182083
0.00181971
0.00182813
0.00182947
0.00183595
0.00186346
0.00193431
0.00197139
0.00172409
0.00126505
0.00101214
0.000761262
0.000703306
0.000788677
0.000664024
0.000448186
0.000312874
0.000231965
0.00182865
0.00182916
0.00182909
0.00183071
0.00182131
0.00182065
0.00181971
0.00182707
0.00182902
0.00183487
0.0018637
0.00192929
0.00196748
0.00174335
0.00121003
0.000924008
0.000779231
0.000673956
0.000711426
0.000595776
0.000419228
0.000318633
0.000231192
0.00182705
0.00182867
0.00183056
0.00182846
0.00182284
0.00182035
0.00181963
0.00182622
0.00182865
0.00183367
0.00186354
0.00192447
0.00196196
0.0017584
0.00115686
0.000859575
0.000796728
0.00065201
0.00066513
0.000584087
0.000438127
0.000327898
0.000236942
0.00182573
0.00182843
0.00183038
0.00182801
0.00182251
0.00182065
0.00181954
0.00182565
0.00182787
0.001833
0.00186363
0.00192095
0.00195689
0.0017711
0.00112188
0.000824211
0.000816107
0.000636826
0.000642253
0.000582192
0.000463153
0.000350498
0.00025759
0.00182428
0.00182698
0.00182992
0.00182559
0.00182205
0.00182002
0.00181895
0.00182435
0.00182765
0.00183161
0.00186383
0.00191789
0.00196537
0.00179974
0.00110651
0.000816763
0.000838475
0.000639081
0.000647828
0.000577986
0.000507106
0.000379292
0.000278854
0.00182372
0.00182523
0.00183021
0.00182392
0.00182301
0.00182008
0.00181944
0.00182349
0.00182663
0.00183105
0.00186412
0.00191542
0.0019733
0.00182156
0.0010949
0.000816716
0.000844495
0.000640776
0.000651571
0.00058759
0.000534497
0.000432364
0.000309039
0.00181734
0.00182479
0.00182746
0.00182426
0.00182164
0.00181961
0.00181736
0.00182293
0.00182631
0.00183048
0.00186423
0.00191341
0.00197371
0.00180998
0.00108853
0.000827817
0.000862556
0.000642378
0.000643955
0.000589782
0.000531359
0.000485603
0.000355982
0.00181018
0.00182338
0.00182299
0.00181862
0.00181967
0.00181808
0.00181579
0.0018218
0.00182549
0.00182839
0.00186395
0.00191394
0.00197503
0.00182146
0.00110666
0.000847089
0.000870976
0.000648171
0.000648264
0.000596025
0.000536416
0.000497191
0.000403558
0.00181251
0.00181596
0.00181909
0.00181805
0.00181819
0.00181902
0.00181607
0.0018202
0.00182361
0.00182845
0.0018638
0.00191436
0.00197956
0.00183902
0.00111836
0.000868009
0.00087444
0.000649794
0.000648091
0.000605194
0.000539105
0.000487203
0.000479669
0.00181377
0.00181521
0.00181966
0.00181734
0.00181582
0.00181841
0.00181594
0.00181957
0.00182287
0.001828
0.00186332
0.00191409
0.00198055
0.00185681
0.00114433
0.000902071
0.000885772
0.000655755
0.000650304
0.000599919
0.000535141
0.000487208
0.000480754
0.00181153
0.00181497
0.00181894
0.00181748
0.00181407
0.00181924
0.00181599
0.00181938
0.00182225
0.00182911
0.00186228
0.00191371
0.00197767
0.00185709
0.00117327
0.000946823
0.000878738
0.000673661
0.000649123
0.000599893
0.000530232
0.000492059
0.00047431
0.00181122
0.00181475
0.00181783
0.00181939
0.00181492
0.00181757
0.00181583
0.00181975
0.00182357
0.00182852
0.0018621
0.00191466
0.00197693
0.00185629
0.00121101
0.000977405
0.000848352
0.000700255
0.000649908
0.000588676
0.000531641
0.000498486
0.000477019
0.00181061
0.00181397
0.00181773
0.00181761
0.00181423
0.00181808
0.00181482
0.001821
0.00182332
0.00182805
0.00186091
0.00191374
0.0019716
0.00185964
0.00124522
0.00103046
0.000818272
0.00071602
0.000642551
0.000585578
0.00053408
0.000504106
0.000481986
0.00181063
0.00181478
0.00181753
0.00181649
0.00181506
0.00181754
0.00181553
0.00181917
0.00182227
0.0018293
0.00185934
0.00191457
0.00196538
0.00186532
0.00128819
0.00110027
0.00077615
0.000734176
0.000654207
0.00058396
0.000542338
0.000513438
0.000490088
0.00180807
0.00181343
0.00181735
0.00181595
0.00181494
0.00181738
0.00181554
0.00181947
0.00182275
0.00182867
0.00185843
0.00191464
0.00196745
0.00186774
0.00134013
0.00118794
0.000761443
0.000732393
0.000648375
0.000592529
0.000547611
0.000518137
0.000494611
0.00180935
0.00181417
0.00181717
0.00181602
0.00181461
0.00181724
0.00181559
0.00182026
0.00182318
0.0018284
0.00185716
0.00191461
0.00196836
0.00187183
0.00138892
0.00125197
0.000742541
0.000757797
0.000662472
0.000603497
0.000564387
0.000526979
0.000500741
0.00180915
0.00181431
0.00181718
0.00181564
0.00181693
0.0018188
0.00181683
0.00181835
0.0018235
0.00182804
0.00185555
0.0019161
0.00196404
0.00187175
0.00144607
0.00125926
0.000774915
0.000776926
0.000688413
0.000627248
0.000577616
0.000534414
0.000508668
0.00180888
0.00181025
0.00181867
0.00181475
0.00181598
0.00181676
0.00181601
0.00181912
0.00182243
0.00182873
0.00185344
0.00191612
0.00196941
0.00187623
0.00152744
0.00124044
0.000802204
0.000793801
0.000706338
0.000646172
0.000600813
0.000556052
0.000524959
0.00181079
0.00181269
0.00181721
0.00181564
0.00181535
0.00181885
0.00181625
0.00181949
0.00182307
0.00182884
0.00185239
0.00191611
0.00197055
0.00187734
0.00160937
0.00121732
0.000827643
0.000812829
0.000720107
0.000679281
0.000631348
0.000583758
0.00055185
0.00180956
0.0018114
0.00181722
0.00181562
0.00181545
0.0018182
0.00181602
0.00181978
0.00182218
0.00182925
0.00185111
0.00191642
0.00196892
0.00188324
0.00163328
0.00122065
0.000858321
0.000830917
0.000745995
0.000714297
0.000680275
0.000631004
0.000586142
0.00181028
0.00181398
0.0018162
0.00181606
0.00181731
0.00181891
0.0018163
0.00181963
0.00182314
0.00182857
0.00185073
0.00191646
0.00197474
0.00187578
0.00164409
0.00123237
0.000913418
0.000844513
0.000777858
0.000753929
0.00072458
0.000684711
0.000632629
0.00180934
0.00181275
0.00181601
0.00181585
0.00181783
0.00181665
0.00181636
0.00181969
0.00182306
0.00182803
0.00185029
0.00191594
0.00196933
0.00188521
0.00164516
0.00122537
0.000919035
0.000860552
0.000801242
0.000789519
0.000761654
0.000730958
0.000676124
0.00180945
0.00181435
0.00181563
0.00181667
0.00181569
0.00181769
0.00181667
0.00181889
0.00182304
0.00182757
0.00184942
0.00191645
0.00197289
0.00188166
0.00164273
0.00121672
0.000919526
0.000874435
0.00083119
0.000822224
0.00080116
0.000773494
0.000720151
0.00180674
0.0018146
0.00181493
0.0018148
0.00181551
0.00181767
0.00181709
0.0018186
0.0018232
0.00182859
0.00184899
0.00191851
0.0019739
0.00189016
0.00163893
0.00123182
0.000919903
0.000895766
0.000869778
0.000849749
0.000837405
0.000809999
0.000756626
0.00180462
0.00181359
0.00181725
0.00181524
0.00181727
0.00181749
0.00181614
0.00181938
0.00182301
0.00182893
0.00184892
0.00192062
0.00196877
0.00188165
0.00164553
0.00124731
0.000933275
0.000927731
0.0009253
0.000900031
0.000882964
0.000854215
0.000795361
0.00180489
0.00181554
0.00181909
0.00181617
0.00181749
0.00181513
0.00181698
0.00181766
0.00182292
0.00182858
0.00184882
0.00192347
0.0019747
0.00188763
0.00165426
0.0012537
0.000963715
0.000946133
0.000977872
0.000943416
0.000916336
0.000885964
0.000843039
0.00180802
0.00181432
0.00182063
0.00181698
0.00181795
0.00181483
0.001817
0.00181787
0.00182146
0.00182832
0.00184921
0.00192707
0.00197222
0.00188256
0.00166357
0.00127866
0.000989904
0.000973331
0.00103554
0.000978839
0.000940253
0.000906586
0.000865131
0.00180952
0.00181273
0.00182038
0.00181608
0.00181774
0.00181594
0.00181673
0.00181803
0.00182169
0.00182834
0.00184933
0.00193113
0.00197247
0.00188367
0.00167823
0.00130423
0.00103104
0.00103015
0.00110946
0.000994798
0.000944449
0.000911332
0.000872877
0.00180719
0.00181033
0.00182029
0.00181427
0.00181811
0.0018168
0.00181729
0.00181765
0.00182299
0.00182965
0.00184921
0.00193644
0.00197442
0.00188602
0.0016763
0.0013388
0.00108712
0.00108834
0.00118395
0.00104097
0.000966588
0.000965434
0.000891521
0.00180942
0.00180936
0.00181785
0.001811
0.00181798
0.00181742
0.00181532
0.00181766
0.00182142
0.00182857
0.0018487
0.00193976
0.00198075
0.00189315
0.00167207
0.00136935
0.00115209
0.00115064
0.00120232
0.00112665
0.00103995
0.00102329
0.000958164
0.00180629
0.00181028
0.0018127
0.00181127
0.00181739
0.00181727
0.00181602
0.00181746
0.00182504
0.0018301
0.00184952
0.0019442
0.00198405
0.00189911
0.0016788
0.00140441
0.00124209
0.00123385
0.00122938
0.00119423
0.00113038
0.00108794
0.00103786
0.00180306
0.00180954
0.00181182
0.00181228
0.00181787
0.00181668
0.00181372
0.00181669
0.00182384
0.00183097
0.00184963
0.00194883
0.00198991
0.00190306
0.00168355
0.00141353
0.00131448
0.00130929
0.00130525
0.00122222
0.00119287
0.001165
0.00111701
0.00180336
0.00180577
0.0018133
0.00181218
0.00181542
0.00181697
0.00181528
0.00181719
0.00182401
0.00183215
0.00184904
0.00194745
0.00199544
0.00192034
0.00170805
0.00146186
0.00138589
0.00138829
0.0013723
0.00131879
0.00127943
0.00124214
0.00120479
0.00180493
0.00180917
0.00181517
0.00181576
0.00181434
0.00181388
0.00181585
0.00181879
0.00182339
0.00183054
0.00184827
0.00193973
0.00200139
0.00193802
0.00174033
0.00150746
0.00144119
0.00144843
0.00142174
0.00139951
0.00138161
0.00135374
0.00129853
0.00180937
0.0018116
0.00181321
0.00181736
0.00181387
0.00181226
0.00181664
0.00181806
0.00182274
0.00183048
0.00184733
0.00193004
0.00200527
0.00195699
0.00177603
0.00155686
0.00150757
0.00152183
0.0015091
0.00148212
0.0014766
0.00144317
0.00139023
0.00181275
0.00180973
0.00181031
0.00182106
0.00181434
0.00181368
0.0018159
0.00181501
0.00182236
0.00183002
0.00184586
0.00191948
0.00200469
0.0019779
0.00181079
0.00161195
0.00158471
0.00160005
0.00158668
0.00154865
0.0015672
0.00157612
0.00150663
0.0018122
0.00180863
0.00181118
0.00181996
0.00181118
0.00181666
0.00181744
0.00181177
0.00182164
0.00182926
0.0018445
0.00190981
0.00200128
0.00199624
0.00185306
0.0016627
0.00163713
0.00167571
0.00166617
0.00164052
0.00165329
0.00166275
0.00162765
0.00181005
0.00180865
0.00181471
0.00181988
0.00181182
0.00181772
0.00181407
0.00181223
0.00182127
0.00182856
0.00184277
0.00190019
0.00199408
0.00201522
0.00189486
0.00172433
0.00171602
0.00173743
0.0017249
0.00174765
0.0017643
0.00177637
0.00172853
0.00181022
0.00180491
0.0018163
0.00181905
0.0018156
0.00181851
0.00181641
0.00181601
0.00182113
0.00182798
0.00184148
0.00189205
0.00198409
0.00203035
0.00194295
0.00178627
0.00180554
0.00180639
0.00177213
0.00180817
0.00185704
0.00184769
0.00180314
0.00180994
0.00179981
0.00181675
0.00181819
0.00181748
0.00181864
0.00181486
0.00181698
0.00182112
0.00182749
0.00183991
0.00188413
0.00197083
0.00204043
0.00199255
0.00186863
0.00189191
0.00191363
0.00183743
0.00184933
0.00188888
0.00192433
0.00187111
0.0018111
0.00180233
0.00181873
0.00181785
0.00181762
0.00181604
0.00181867
0.00181697
0.0018209
0.00182708
0.00183889
0.00187773
0.00195613
0.00204822
0.00200379
0.00191689
0.00197133
0.00205727
0.00191194
0.00193271
0.0019079
0.00198241
0.00194666
0.00181146
0.00180927
0.00182095
0.00181755
0.00181628
0.00181445
0.00181509
0.00181601
0.00182036
0.00182643
0.00183751
0.00187148
0.00194155
0.00204428
0.00201433
0.00195043
0.00210306
0.00216989
0.0021008
0.00199253
0.00197021
0.00197122
0.00198473
0.00181202
0.00181057
0.00181745
0.0018168
0.00181442
0.0018135
0.00181297
0.00181547
0.00181973
0.00182576
0.00183644
0.00186626
0.0019278
0.00203199
0.00203251
0.00198864
0.00217535
0.00225437
0.00226979
0.00210373
0.00207806
0.00205763
0.00207728
0.00181243
0.00181006
0.00181409
0.00181561
0.00181238
0.00181291
0.00181081
0.00181445
0.00181895
0.00182473
0.00183487
0.001861
0.0019146
0.00200646
0.00206361
0.00208072
0.00223273
0.00247422
0.00247138
0.00222486
0.00224479
0.00222359
0.00224261
0.00181192
0.00180874
0.00181175
0.00181413
0.00181049
0.0018123
0.00180905
0.00181396
0.00181825
0.0018238
0.0018333
0.00185605
0.00190078
0.00197792
0.0020696
0.00213441
0.00230439
0.00262977
0.00271621
0.0023987
0.00241311
0.00233529
0.00235257
0.00181031
0.00180716
0.00180965
0.00181258
0.00180875
0.00181154
0.00180754
0.00181287
0.00181753
0.00182247
0.00183119
0.00185118
0.00188903
0.00195161
0.00203975
0.00215514
0.00233192
0.00269663
0.00288968
0.00258717
0.00259711
0.00263093
0.00260817
0.00180806
0.0018054
0.00180716
0.00181075
0.00180704
0.00181052
0.00180647
0.00181225
0.00181641
0.0018211
0.00182883
0.00184589
0.00187897
0.00192821
0.00201822
0.00213897
0.00236168
0.00275157
0.0031063
0.0032083
0.0028937
0.00281438
0.0027212
0.00180535
0.00180364
0.00180454
0.00180883
0.00180542
0.00180911
0.00180549
0.0018111
0.0018151
0.00181905
0.00182609
0.00184055
0.00187033
0.00190713
0.00198534
0.00212651
0.00231401
0.00272175
0.00311242
0.00325962
0.00349268
0.00323964
0.00306484
0.00180271
0.00180191
0.00180146
0.00180659
0.00180359
0.00180735
0.00180469
0.00180977
0.00181306
0.00181702
0.00182244
0.00183414
0.0018613
0.00189076
0.00196074
0.00209497
0.0022874
0.0025841
0.00292963
0.00321858
0.00348006
0.00334563
0.00332095
0.00180008
0.00180013
0.00179796
0.0018043
0.00180184
0.00180528
0.00180387
0.00180778
0.00181079
0.00181446
0.00181865
0.00182795
0.00184926
0.00187325
0.00192592
0.00207653
0.00225734
0.00255781
0.00299642
0.00352741
0.00354558
0.00357202
0.00405445
0.00179768
0.00179837
0.00179384
0.00180132
0.00179966
0.0018029
0.0018027
0.00180533
0.00180776
0.00181134
0.00181424
0.00182152
0.00183783
0.00185656
0.00189029
0.00200725
0.00220358
0.00251575
0.00309403