/*--------------------------------*- C++ -*----------------------------------*\
  =========                 |
  \\      /  F ield         | OpenFOAM: The Open Source CFD Toolbox
   \\    /   O peration     | Website:  https://openfoam.org
    \\  /    A nd           | Version:  7
     \\/     M anipulation  |
\*---------------------------------------------------------------------------*/
FoamFile
{
    version     2.0;
    format      ascii;
    class       volScalarField;
    location    "50";
    object      omega;
}
// * * * * * * * * * * * * * * * * * * * * * * * * * * * * * * * * * * * * * //

dimensions      [0 0 -1 0 0 0 0];

internalField   nonuniform List<scalar> 
12842
(
3.14539
2.84646
2.65871
2.52937
2.44509
2.38088
2.33446
2.30054
2.27346
2.25557
2.23951
2.23125
2.22336
2.22415
2.22882
2.24117
2.26328
2.30601
2.36714
2.44993
2.53138
2.63627
2.70007
3.13671
2.82761
2.63742
2.50246
2.42336
2.36675
2.32532
2.29406
2.27072
2.25443
2.23943
2.23075
2.22336
2.22442
2.22986
2.24307
2.26711
2.30872
2.36938
2.46135
2.53908
2.64427
2.70744
3.11147
2.80779
2.62529
2.4933
2.40649
2.34778
2.31759
2.28618
2.26396
2.24844
2.23603
2.22942
2.22291
2.22429
2.23067
2.24573
2.27333
2.31797
2.38271
2.48083
2.55608
2.66851
2.72949
3.09244
2.7697
2.59197
2.47414
2.39584
2.33743
2.30473
2.28054
2.26136
2.24535
2.23312
2.22632
2.22185
2.22393
2.23129
2.2474
2.27631
2.32272
2.38982
2.49094
2.56579
2.68822
2.76315
3.06817
2.73974
2.56274
2.44859
2.37406
2.31955
2.2932
2.26953
2.25506
2.24077
2.23098
2.22494
2.22107
2.22358
2.23223
2.25064
2.28308
2.33451
2.40906
2.52695
2.60197
2.71725
2.81159
3.04282
2.71159
2.53646
2.43212
2.36256
2.30938
2.28162
2.262
2.25095
2.23627
2.22761
2.22256
2.22012
2.22334
2.23379
2.25444
2.2888
2.34138
2.41838
2.5397
2.65209
2.7755
2.90184
3.01812
2.67812
2.50587
2.40584
2.34128
2.29466
2.27185
2.25135
2.24411
2.23354
2.22601
2.22092
2.2195
2.22321
2.23435
2.2569
2.29683
2.35977
2.45001
2.57165
2.7183
2.84812
3.00342
2.99361
2.65872
2.48867
2.39316
2.33258
2.28752
2.26224
2.24535
2.23818
2.22814
2.2229
2.21948
2.21873
2.22371
2.23708
2.26259
2.30409
2.37054
2.4728
2.62824
2.8024
2.97033
3.11471
2.96777
2.6283
2.46312
2.37004
2.31548
2.27747
2.2545
2.23785
2.23288
2.22433
2.2208
2.2178
2.21829
2.22404
2.23893
2.26812
2.3207
2.39985
2.51797
2.68961
2.88238
3.10119
3.26484
2.94179
2.60673
2.4494
2.36081
2.3079
2.27254
2.2492
2.2351
2.22899
2.2204
2.21852
2.21666
2.21783
2.22587
2.24508
2.27976
2.33417
2.42924
2.57226
2.78849
3.00222
3.23895
3.40206
2.91317
2.58024
2.42558
2.34247
2.29438
2.26396
2.24247
2.22989
2.22529
2.21749
2.21599
2.21521
2.2176
2.22702
2.24967
2.29232
2.37324
2.50052
2.64035
2.86287
3.09434
3.37916
3.54966
2.88634
2.5593
2.41388
2.33409
2.288
2.26
2.23839
2.22732
2.22231
2.21551
2.21378
2.21417
2.21679
2.23112
2.26673
2.33034
2.41763
2.56338
2.73012
2.98246
3.24485
3.5304
3.70807
2.8594
2.53663
2.39343
2.31809
2.27667
2.25265
2.23289
2.22221
2.21733
2.21229
2.21098
2.2124
2.21683
2.23964
2.29255
2.36884
2.48781
2.66163
2.82669
3.08164
3.35179
3.6859
3.86942
2.83333
2.51803
2.38249
2.31076
2.27131
2.24901
2.23031
2.21955
2.21468
2.20995
2.20922
2.2104
2.22049
2.26347
2.34152
2.43546
2.55881
2.74201
2.9336
3.21029
3.51091
3.84043
4.0368
2.80929
2.49938
2.36502
2.29701
2.2618
2.2428
2.22562
2.21407
2.20868
2.20713
2.20609
2.2104
2.23359
2.29788
2.3935
2.49665
2.64803
2.85742
3.05018
3.3285
3.61977
3.99639
4.19035
2.7848
2.48307
2.35541
2.29052
2.25727
2.23987
2.22308
2.21134
2.20556
2.2048
2.20521
2.21771
2.26392
2.34963
2.4617
2.58247
2.7363
2.94306
3.16107
3.45317
3.77871
4.13847
4.37419
2.7644
2.46763
2.34049
2.27896
2.24927
2.23426
2.21766
2.2061
2.20054
2.20088
2.20584
2.23688
2.3036
2.40828
2.5309
2.66019
2.83485
3.06618
3.28727
3.58447
3.89149
4.28359
4.51509
2.74254
2.45407
2.33199
2.27323
2.24552
2.23147
2.21487
2.20355
2.2019
2.2044
2.21893
2.27233
2.35866
2.47946
2.61027
2.753
2.92759
3.14935
3.38951
3.69805
4.04918
4.41899
4.68588
2.72508
2.43998
2.32038
2.26413
2.2383
2.22565
2.2088
2.19841
2.1996
2.20894
2.24096
2.31454
2.42043
2.55225
2.68823
2.84028
3.03047
3.2733
3.52258
3.83379
4.16195
4.56001
4.82652
2.70682
2.42864
2.3125
2.25756
2.23474
2.22264
2.20584
2.2037
2.21372
2.23535
2.28374
2.37362
2.49305
2.63107
2.77026
2.92804
3.11728
3.3498
3.60724
3.94014
4.3145
4.69509
4.97477
2.69147
2.41542
2.30529
2.2517
2.22753
2.21622
2.20141
2.20437
2.23295
2.26445
2.32574
2.43464
2.56603
2.70849
2.8508
3.01993
3.22009
3.46685
3.74607
4.06549
4.42127
4.80907
5.10812
2.67741
2.40554
2.2971
2.24301
2.22356
2.21697
2.20781
2.22481
2.27926
2.31923
2.39038
2.51053
2.64578
2.78533
2.92698
3.0957
3.3001
3.54516
3.81891
4.18585
4.5792
4.98136
5.28767
2.66508
2.3915
2.29249
2.23819
2.21785
2.21491
2.22184
2.257
2.3171
2.36706
2.44941
2.58079
2.71898
2.8609
3.0083
3.18903
3.39766
3.65079
3.96922
4.30453
4.69581
5.06529
5.38351
2.65477
2.38406
2.28818
2.23171
2.21123
2.21984
2.25768
2.31627
2.38438
2.44361
2.53403
2.66892
2.80293
2.93527
3.07843
3.26164
3.48853
3.75353
4.05044
4.45649
4.87249
5.29387
5.639
2.64689
2.37369
2.28407
2.22779
2.2109
2.23991
2.29785
2.36722
2.44316
2.51069
2.60704
2.74341
2.87356
3.00836
3.1614
3.35007
3.5721
3.84783
4.22256
4.61008
5.05851
5.43086
5.78345
2.63845
2.36799
2.28179
2.22248
2.22069
2.27462
2.34861
2.42602
2.50666
2.57995
2.6806
2.81606
2.9421
3.06952
3.22056
3.42869
3.69146
3.99477
4.34019
4.79272
5.23354
5.67606
6.09575
2.62896
2.35784
2.27714
2.22067
2.24442
2.32157
2.40557
2.48742
2.57039
2.65026
2.75227
2.88342
3.00286
3.13362
3.29688
3.50081
3.75708
4.09105
4.54146
5.02912
5.59996
6.04952
6.44723
2.62124
2.35232
2.2749
2.22783
2.27733
2.37102
2.46751
2.5544
2.6375
2.71934
2.82072
2.94672
3.06176
3.1865
3.3493
3.59062
3.90508
4.28496
4.76175
5.35684
5.89852
6.30805
6.83278
2.60933
2.34419
2.269
2.24265
2.32016
2.42804
2.5324
2.61702
2.70111
2.78563
2.88415
3.00301
3.11126
3.24018
3.41723
3.65231
3.98012
4.43085
5.02365
5.62565
6.28362
7.14862
8.23167
2.602
2.33641
2.27136
2.27335
2.36492
2.48601
2.59524
2.68078
2.76338
2.84726
2.94215
3.05439
3.15981
3.28526
3.46499
3.75159
4.1477
4.67981
5.38066
6.30465
7.42374
8.48879
9.30737
2.58882
2.33223
2.28005
2.30413
2.41884
2.54707
2.65849
2.73849
2.82192
2.90388
2.99384
3.09852
3.19861
3.32928
3.5256
3.81434
4.25473
4.92396
5.85297
7.02662
8.27744
9.42095
10.9171
2.58092
2.32481
2.30034
2.34766
2.47091
2.60524
2.71507
2.7927
2.87437
2.95442
3.03965
3.13816
3.23776
3.36897
3.5764
3.9286
4.46721
5.23053
6.31634
7.61763
9.04637
11.4538
17.7193
2.5692
2.32255
2.32526
2.38961
2.52471
2.66434
2.76967
2.84153
2.92306
2.9986
3.07934
3.17139
3.26781
3.40442
3.62745
3.99921
4.60736
5.58305
7.00282
8.95854
12.052
23.9414
66.5676
2.55827
2.31743
2.35886
2.44029
2.57686
2.71585
2.8161
2.88571
2.96436
3.03751
3.11375
3.20106
3.29916
3.44196
3.69329
4.13425
4.85176
5.9567
7.71133
10.4779
19.2236
51.3223
96.6273
2.55119
2.32409
2.39685
2.48661
2.62461
2.76833
2.85924
2.92338
3.00137
3.07028
3.14293
3.22579
3.32336
3.47182
3.73361
4.20962
5.02033
6.39592
8.623
13.5205
28.5288
66.1968
143.52
2.54007
2.34365
2.43861
2.53818
2.67077
2.81015
2.89491
2.95801
3.03217
3.09893
3.16784
3.24775
3.34826
3.50739
3.81398
4.36265
5.29459
6.79858
9.4873
15.2438
34.5161
92.6607
146.787
2.53436
2.37274
2.48433
2.58481
2.71346
2.85489
2.92825
2.98715
3.05908
3.12278
3.18874
3.2665
3.36971
3.53846
3.85587
4.4454
5.46748
7.22419
10.4539
19.3934
48.7111
84.72
145.407
2.52975
2.41413
2.52861
2.63286
2.75216
2.88758
2.95604
3.01213
3.08194
3.14374
3.20633
3.28287
3.38938
3.56984
3.94188
4.61184
5.75059
7.63836
11.21
20.9639
49.5873
84.3268
144.786
2.5362
2.45457
2.57635
2.67691
2.79143
2.92329
2.98222
3.03606
3.10145
3.16105
3.22121
3.29774
3.41024
3.60744
3.98897
4.71215
5.93237
7.97276
12.239
26.8914
49.9674
81.5842
125.979
2.54928
2.50505
2.61973
2.72068
2.82616
2.95391
3.00639
3.05524
3.11892
3.17642
3.23361
3.31027
3.42661
3.63605
4.08803
4.87515
6.19502
8.36879
12.7881
26.9483
46.1244
73.1038
136.025
2.57712
2.55135
2.667
2.7609
2.85963
2.97942
3.02724
3.07426
3.1322
3.18912
3.2445
3.32282
3.4476
3.68193
4.14602
5.04434
6.4556
8.6965
13.0532
27.183
44.9589
78.5587
134.121
2.60279
2.60317
2.70883
2.80031
2.89451
3.00625
3.04882
3.09203
3.14309
3.20021
3.2536
3.33291
3.46326
3.71134
4.26246
5.17115
6.7124
8.99579
13.5387
26.4209
44.6993
78.4177
128.57
2.63696
2.65007
2.75419
2.83683
2.92285
3.02624
3.06472
3.10344
3.15084
3.20924
3.26214
3.34412
3.48443
3.76768
4.33241
5.43589
7.02418
9.2723
13.587
23.9773
43.9964
76.4758
116.976
2.66948
2.69722
2.79346
2.87294
2.9518
3.04481
3.08225
3.11905
3.15881
3.21662
3.2694
3.35287
3.50198
3.80097
4.47925
5.59601
7.31835
9.56854
14.7433
26.2924
42.5161
73.5894
127.215
2.70122
2.73945
2.83364
2.9057
2.9755
3.05535
3.09599
3.12864
3.16411
3.22269
3.27668
3.36334
3.52317
3.8671
4.56387
5.84621
7.66754
10.0619
15.3905
26.3512
46.4867
80.7945
123.487
2.73354
2.77876
2.86734
2.93628
2.99778
3.06987
3.10638
3.13292
3.1705
3.22783
3.28296
3.37153
3.5438
3.91043
4.73255
6.14005
8.12529
11.1739
18.1444
33.7024
60.3447
94.4596
129.874
2.75757
2.81438
2.89725
2.96207
3.01452
3.07459
3.11268
3.13696
3.17398
3.23192
3.28947
3.38159
3.56643
3.97973
4.85799
6.42979
8.8759
13.2169
27.4076
49.478
76.9701
105.792
136.429
2.78567
2.84607
2.92333
2.98634
3.02854
3.08622
3.11962
3.14201
3.17882
3.23658
3.29513
3.3899
3.58832
4.04141
5.02123
6.88806
10.2339
20.1614
40.2585
65.5824
92.8221
114.631
138.236
2.80412
2.87407
2.94347
3.00535
3.04068
3.0932
3.12339
3.14663
3.18212
3.23977
3.30123
3.39934
3.61376
4.10739
5.27041
7.79557
13.7694
30.5236
58.0303
82.9558
103.57
119.96
136.518
2.82895
2.90374
2.965
3.02403
3.05218
3.1
3.12954
3.1522
3.18731
3.24449
3.30666
3.40861
3.63609
4.19005
5.49771
8.97209
19.6334
43.0847
74.7236
95.4501
113.354
124.036
135.689
2.84873
2.92679
2.98116
3.03716
3.06218
3.10567
3.1342
3.15757
3.19084
3.24816
3.31221
3.41586
3.65819
4.25776
5.86864
10.9642
26.425
54.485
87.4065
104.947
118.502
126.407
133.893
2.86917
2.94793
2.99903
3.05039
3.07197
3.11309
3.14037
3.16389
3.19592
3.25228
3.31663
3.4242
3.67754
4.33184
6.31072
13.2208
32.3218
63.7705
97.9138
112.192
123.444
127.276
135.995
2.88951
2.96344
3.01398
3.0589
3.08116
3.11897
3.14573
3.16918
3.19991
3.25584
3.32122
3.42918
3.69306
4.41049
6.7622
15.3435
36.4872
69.9711
103.501
115.843
123.605
127.589
135.068
2.90812
2.97699
3.03037
3.0681
3.09075
3.1257
3.15162
3.17443
3.20457
3.2596
3.32541
3.43709
3.71195
4.49138
7.17666
16.8139
38.6712
74.1161
105.504
116.11
123.879
126.457
130.944
2.92835
2.98876
3.04478
3.07432
3.10064
3.13242
3.1575
3.17895
3.20822
3.26244
3.32874
3.44069
3.72002
4.54351
7.54316
17.4263
39.5939
75.8969
105.971
116.013
121.098
117.217
118.665
2.94673
2.99926
3.05975
3.08176
3.11053
3.13975
3.16392
3.18309
3.21239
3.26533
3.33247
3.44637
3.73239
4.63034
7.80708
17.6165
39.315
76.9455
105.324
111.219
109.411
101.236
101.203
2.9649
3.00953
3.07189
3.08853
3.12003
3.14733
3.17016
3.18731
3.21592
3.26726
3.33486
3.44926
3.73598
4.6697
7.81009
17.0075
36.7745
75.5076
99.4269
98.0671
93.5976
84.3321
84.8583
2.98138
3.01928
3.08387
3.09617
3.12899
3.1549
3.17682
3.19113
3.21963
3.26908
3.3367
3.45202
3.73816
4.68595
7.78252
15.8139
33.0865
70.2127
87.6468
82.7077
77.3136
69.0444
69.8186
2.99782
3.03093
3.09455
3.10502
3.13856
3.16348
3.18379
3.19645
3.22376
3.27092
3.33836
3.45395
3.74003
4.68798
7.6284
14.5278
29.1059
61.7248
73.8691
67.5225
62.647
56.5564
56.7295
3.01464
3.04273
3.10566
3.11435
3.1479
3.17222
3.19143
3.20118
3.22783
3.27286
3.33844
3.45589
3.73854
4.67905
7.35934
13.1112
25.1092
52.0235
60.1206
54.0856
50.1582
46.231
46.5173
3.03087
3.05649
3.11589
3.12525
3.15772
3.18115
3.19901
3.20768
3.23245
3.27495
3.33865
3.45733
3.73669
4.64129
7.0597
11.8558
21.4708
42.4757
47.8648
43.0748
40.107
38.7291
38.9289
3.04702
3.07055
3.1261
3.13584
3.16732
3.19057
3.20708
3.21334
3.23682
3.27715
3.33883
3.4574
3.73071
4.58637
6.71742
10.6669
18.3245
34.2009
37.7278
34.6696
33.0525
32.8025
33.3451
3.06383
3.08483
3.13629
3.14788
3.17684
3.19919
3.21501
3.2204
3.24144
3.27952
3.33906
3.45748
3.72418
4.5183
6.38341
9.65566
15.7694
27.6593
29.9667
28.5593
28.2027
28.0892
28.658
3.07871
3.10047
3.14554
3.15904
3.18669
3.20851
3.22308
3.22692
3.2461
3.28207
3.33911
3.45666
3.71537
4.44054
6.06774
8.77646
13.8079
22.881
24.4222
24.4831
24.5257
24.7616
25.6585
3.09545
3.11427
3.15592
3.17131
3.19518
3.21662
3.2309
3.23372
3.25052
3.28455
3.33986
3.4548
3.70406
4.36436
5.76896
8.06975
12.3455
19.6099
20.9087
21.9515
22.2137
22.6416
23.6021
3.10972
3.12968
3.16488
3.18246
3.20513
3.22518
3.2385
3.24085
3.25547
3.2873
3.33944
3.45304
3.6905
4.28239
5.51954
7.50352
11.355
17.5149
18.8055
20.5037
20.8699
21.2785
22.1085
3.12533
3.14319
3.17472
3.19436
3.2126
3.23288
3.24636
3.24721
3.25983
3.29006
3.33974
3.45065
3.67706
4.20501
5.28056
7.0611
10.6205
16.2246
17.6419
19.6375
20.3475
20.7498
21.3665
3.13881
3.15752
3.18495
3.20498
3.22212
3.24052
3.2528
3.25423
3.26483
3.29247
3.33961
3.44806
3.65735
4.12715
5.0855
6.74782
10.1978
15.4926
16.9777
19.2327
20.249
20.7038
21.062
3.15387
3.1698
3.19372
3.21643
3.22964
3.24779
3.26028
3.26049
3.26957
3.29562
3.33929
3.44558
3.64068
4.05922
4.91791
6.51808
9.86256
15.0454
16.6733
18.9299
20.2391
20.661
21.0928
3.16664
3.1838
3.20459
3.22624
3.2374
3.2541
3.26651
3.26686
3.27455
3.29817
3.33903
3.44348
3.6231
4.00461
4.79408
6.3603
9.71153
14.8341
16.4758
18.7557
20.2925
20.8152
21.1298
3.17967
3.19475
3.21364
3.23543
3.24553
3.26218
3.27198
3.27237
3.27866
3.3006
3.33872
3.44138
3.60818
3.94979
4.69406
6.24903
9.51692
14.6821
16.3963
18.5948
20.3917
21.0999
21.3061
3.19466
3.20555
3.22353
3.24602
3.25247
3.26547
3.27872
3.27844
3.28447
3.30424
3.3386
3.43951
3.59477
3.91823
4.63483
6.17615
9.42094
14.5625
16.3204
18.3517
20.5108
21.4041
21.5567
3.19653
3.2186
3.2333
3.24813
3.25753
3.26701
3.27844
3.2811
3.28788
3.30442
3.33792
3.43768
3.59001
3.90123
4.59228
6.11853
9.37465
14.5033
16.2475
18.2789
20.4324
21.6697
21.8787
3.19896
3.22059
3.23398
3.24982
3.26158
3.26708
3.27925
3.2825
3.28956
3.3064
3.33785
3.43672
3.58786
3.89225
4.5614
6.06737
9.23413
14.405
16.242
18.3159
20.5483
21.8781
22.1947
3.20191
3.22206
3.23514
3.25178
3.26509
3.26731
3.27989
3.28315
3.29128
3.30564
3.33828
3.43494
3.58505
3.88127
4.54163
6.04554
9.33748
14.2808
16.3199
18.4658
20.6968
22.0084
22.415
3.2032
3.22238
3.23716
3.25132
3.26436
3.27013
3.28022
3.28317
3.29039
3.30593
3.33754
3.43442
3.58504
3.88051
4.53225
6.01626
9.73647
14.3419
16.6951
18.7965
20.8736
22.1224
22.5806
3.20439
3.22498
3.23733
3.253
3.26561
3.26915
3.28268
3.28285
3.29025
3.30702
3.33791
3.43393
3.58443
3.87882
4.52287
5.98327
10.3716
14.7383
17.3553
19.207
21.0379
22.1802
22.6784
3.20507
3.22268
3.23758
3.25596
3.26577
3.27015
3.2816
3.28478
3.29209
3.30594
3.33868
3.4337
3.5841
3.87665
4.51692
6.00748
11.1697
15.2089
18.005
19.7065
21.2358
22.2756
22.7353
3.20997
3.22657
3.23789
3.25457
3.26559
3.27037
3.28136
3.28407
3.29137
3.30609
3.33796
3.43344
3.58371
3.87288
4.51326
6.01256
11.97
16.0057
18.9174
20.2866
21.4846
22.366
22.8406
3.20785
3.22565
3.23798
3.25399
3.26582
3.2706
3.28124
3.28395
3.29115
3.30663
3.33762
3.43335
3.58277
3.87031
4.51438
6.02175
12.7877
16.3092
19.267
20.559
21.5911
22.4751
22.9512
3.20975
3.22579
3.23802
3.25398
3.26354
3.26846
3.28058
3.28571
3.29105
3.30715
3.33762
3.43324
3.58253
3.87414
4.51871
6.02685
12.8489
16.4623
19.2615
20.5943
21.6266
22.4778
22.9682
3.20614
3.22992
3.23773
3.25504
3.26314
3.26985
3.28032
3.28421
3.29122
3.30562
3.33856
3.43316
3.5792
3.8745
4.5177
6.12245
12.967
16.5457
19.2817
20.526
21.5204
22.2341
22.7238
3.20575
3.22725
3.2375
3.25242
3.26312
3.26812
3.27947
3.28438
3.29094
3.30527
3.33779
3.43294
3.57684
3.87499
4.51792
6.2202
13.1505
16.6701
19.1816
20.1237
21.0214
21.534
22.138
3.2041
3.22587
3.23704
3.25189
3.26279
3.26725
3.27934
3.28368
3.29097
3.30483
3.33822
3.4329
3.57888
3.87047
4.51914
6.23656
13.1908
16.5921
18.6409
19.3517
20.1098
20.5668
21.2156
3.20396
3.2256
3.23733
3.25102
3.26049
3.2666
3.27865
3.28383
3.28881
3.3045
3.33708
3.43284
3.57803
3.87341
4.51997
6.24047
13.2763
16.6694
18.1241
18.6547
19.2419
19.6429
20.2529
3.20586
3.22432
3.23655
3.25043
3.2601
3.26777
3.27812
3.28153
3.28833
3.30519
3.33683
3.43272
3.57816
3.87136
4.52037
6.29366
13.3029
16.653
17.7021
18.0767
18.4568
18.8397
19.462
3.20131
3.22356
3.2361
3.24918
3.2607
3.26528
3.27871
3.28256
3.28846
3.3057
3.33717
3.43274
3.57666
3.87535
4.52353
6.33119
13.3466
16.46
17.1456
17.3893
17.7138
18.093
18.7013
3.20057
3.22335
3.23673
3.24857
3.26091
3.26505
3.2787
3.28011
3.28602
3.30365
3.3373
3.43299
3.57577
3.87927
4.5233
6.27021
13.4288
15.9093
16.4588
16.7856
17.0543
17.4398
18.0706
3.20187
3.2237
3.23255
3.24701
3.25745
3.2656
3.27832
3.27996
3.28553
3.30319
3.33651
3.43249
3.57542
3.87711
4.5202
6.25844
13.297
15.1084
15.5835
16.0708
16.4113
16.8744
17.6169
3.20014
3.21875
3.23158
3.24664
3.25685
3.26638
3.27605
3.28055
3.28527
3.30346
3.33617
3.43228
3.57137
3.87892
4.51417
6.27884
12.6486
14.1775
14.6704
15.3275
15.8718
16.3166
16.9945
3.1975
3.21804
3.22944
3.24534
3.258
3.2664
3.27401
3.28138
3.2847
3.30263
3.33497
3.42967
3.5727
3.87769
4.51264
6.21549
11.7643
13.1417
13.7014
14.5157
15.2064
15.6726
16.3704
3.19054
3.21851
3.22835
3.24488
3.25765
3.26554
3.27337
3.28076
3.28347
3.30137
3.33418
3.42789
3.57173
3.87777
4.51357
6.16826
10.8983
12.1721
12.765
13.653
14.3685
14.8778
15.6495
3.19437
3.21878
3.22679
3.24686
3.256
3.26445
3.27196
3.27965
3.28258
3.29841
3.33408
3.42284
3.57195
3.87803
4.52481
6.06972
10.0037
11.1947
11.8559
12.7914
13.43
13.9207
14.7182
3.18835
3.21693
3.22612
3.24648
3.25341
3.26155
3.27136
3.27772
3.28229
3.2976
3.33481
3.42073
3.57553
3.88104
4.53171
6.01416
9.30844
10.4483
11.0805
11.9467
12.4808
12.9668
13.664
3.19036
3.21188
3.22831
3.24414
3.25198
3.26006
3.2724
3.27623
3.27875
3.2973
3.3326
3.4147
3.57657
3.88084
4.52164
5.90909
8.56921
9.61615
10.2852
10.9944
11.4456
11.8835
12.4555
3.1889
3.2093
3.22796
3.24166
3.24852
3.259
3.27291
3.27301
3.27823
3.29406
3.33387
3.4137
3.58353
3.89095
4.55615
5.93367
8.13702
9.09018
9.71115
10.2991
10.703
11.059
11.5296
3.18603
3.20761
3.22591
3.23543
3.24887
3.25363
3.27153
3.27072
3.27945
3.29304
3.33195
3.40643
3.57664
3.87097
4.50766
5.72873
7.53645
8.39735
8.96594
9.41952
9.76211
10.0109
10.3968
3.17886
3.19934
3.21922
3.23279
3.24693
3.25197
3.26881
3.2683
3.27934
3.29407
3.32946
3.39932
3.56492
3.84356
4.436
5.54241
7.0375
7.82315
8.35348
8.72347
8.99105
9.18187
9.48798
3.16794
3.19651
3.21468
3.22306
3.24401
3.25249
3.26385
3.26653
3.27722
3.29292
3.32599
3.39152
3.54886
3.81007
4.35342
5.36053
6.60992
7.34121
7.74854
8.11342
8.34453
8.48833
8.73762
3.16392
3.19673
3.20808
3.21915
3.2379
3.2506
3.26024
3.26497
3.27392
3.29013
3.32205
3.3838
3.53034
3.77387
4.27302
5.20501
6.24843
6.89991
7.33296
7.61372
7.80188
7.92699
8.13473
3.16334
3.19259
3.20254
3.2182
3.23192
3.24321
3.25075
3.26026
3.27002
3.28606
3.31664
3.37489
3.50967
3.73633
4.19822
5.05211
5.97242
6.56366
6.93507
7.20346
7.38534
7.48151
7.63306
3.15992
3.1831
3.19793
3.21286
3.2268
3.23667
3.24487
3.25523
3.26516
3.28113
3.31094
3.36634
3.48959
3.70075
4.13242
4.94081
5.72231
6.30514
6.62359
6.84328
7.00151
7.09317
7.24009
3.1503
3.17375
3.19095
3.2064
3.22069
3.22822
3.23407
3.24829
3.25831
3.27433
3.30345
3.35637
3.46932
3.6665
4.07107
4.83287
5.54418
6.06539
6.46408
6.62798
6.73874
6.81428
6.93897
3.13933
3.16091
3.18213
3.19886
3.21108
3.21933
3.22498
3.24086
3.25035
3.26667
3.29578
3.34694
3.45109
3.63563
4.01666
4.72993
5.41479
5.85749
6.39224
6.5576
6.57908
6.65746
6.71071
3.12483
3.14853
3.16835
3.18781
3.20002
3.21229
3.21592
3.23142
3.24055
3.25685
3.28555
3.33532
3.43258
3.60577
3.96187
4.64664
5.25609
5.66653
6.31426
6.54295
6.58775
6.55219
6.53661
3.11047
3.13743
3.15145
3.17533
3.18956
3.20277
3.2124
3.22165
3.2303
3.24654
3.27504
3.32383
3.41559
3.57768
3.90769
4.54036
5.16517
5.54982
6.17037
6.60009
6.60007
6.59407
6.56524
3.0914
3.12313
3.14171
3.16025
3.17657
3.18909
3.20114
3.20855
3.21746
3.23331
3.26097
3.30876
3.39688
3.5487
3.84884
4.44563
5.03168
5.39928
6.03811
6.59679
6.54601
6.56353
6.46022
3.07059
3.10677
3.12905
3.14455
3.16259
3.17412
3.18785
3.1946
3.2036
3.21948
3.24655
3.29309
3.37692
3.5182
3.79265
4.32466
4.93561
5.35894
5.83947
6.57638
6.53913
6.50525
6.38739
3.04711
3.08545
3.1104
3.12488
3.144
3.15472
3.1694
3.17583
3.18549
3.20106
3.22716
3.2723
3.35155
3.48033
3.72352
4.19504
4.80589
5.29028
5.75546
6.51207
6.58249
6.64884
6.61542
3.02406
3.06213
3.08924
3.10394
3.12378
3.13426
3.14967
3.15622
3.1659
3.18189
3.20719
3.25016
3.32562
3.43719
3.65546
4.06529
4.65744
5.21826
5.68821
6.38134
6.52128
6.48638
6.38969
2.99673
3.03305
3.06179
3.0773
3.09739
3.10781
3.12367
3.13046
3.14084
3.1562
3.1803
3.22056
3.29402
3.38578
3.57424
3.96837
4.47394
5.10613
5.62236
6.34813
6.61804
6.50895
6.64659
2.96808
3.00244
3.03255
3.04917
3.06931
3.08019
3.09642
3.10403
3.11463
3.13024
3.15248
3.1891
3.26029
3.33488
3.49105
3.86061
4.29228
4.89428
5.56454
6.09063
6.82996
6.66874
6.6474
2.93195
2.96458
2.99577
3.0134
3.03323
3.04456
3.06073
3.06953
3.08064
3.09533
3.11588
3.14811
3.213
3.27783
3.41103
3.76911
4.20864
4.64465
5.372
5.84557
6.54017
7.06279
6.65163
2.89351
2.92556
2.95778
2.97627
2.99578
3.00794
3.02387
3.03441
3.04589
3.06035
3.07909
3.10642
3.16378
3.21946
3.32167
3.62759
4.08879
4.49373
5.05943
5.50205
6.10827
7.00592
6.98983
2.84525
2.87696
2.91009
2.9291
2.94809
2.96073
2.97604
2.98815
2.99976
3.01342
3.03071
3.0526
3.09933
3.14832
3.22619
3.44593
3.94017
4.3652
4.83853
5.22327
5.57508
6.31512
6.67763
2.79537
2.82806
2.86199
2.88144
2.89999
2.91337
2.92815
2.94179
2.95398
2.96694
2.98343
3.00106
3.03679
3.08255
3.13921
3.27496
3.68977
4.19147
4.70871
5.08128
5.47377
5.84506
6.29476
2.73374
2.76672
2.80109
2.82081
2.83854
2.85207
2.86627
2.88051
2.89226
2.90475
2.91964
2.93314
2.95821
3.00369
3.04219
3.1194
3.35755
3.95634
4.49098
5.04455
5.74562
5.73005
5.70523
2.67264
2.70708
2.74147
2.76167
2.77872
2.79254
2.80666
2.82149
2.83338
2.84504
2.85995
2.87163
2.88881
2.92492
2.95685
3.00298
3.12719
3.53493
4.14821
4.73868
5.7714
5.82368
5.42549
2.59715
2.63118
2.66475
2.68525
2.70098
2.71425
2.72801
2.74233
2.75328
2.76371
2.77652
2.78788
2.79912
2.82269
2.85612
2.88025
2.93832
3.11239
3.65639
4.23836
4.99151
6.37896
6.08322
2.52585
2.56076
2.59304
2.61415
2.629
2.64202
2.65596
2.67028
2.68099
2.69076
2.70281
2.71367
2.72324
2.73748
2.7651
2.78684
2.81337
2.89027
3.08529
3.72945
4.28769
5.16372
6.32318
2.43531
2.46824
2.49798
2.5188
2.53189
2.54358
2.5565
2.56952
2.57922
2.58677
2.59699
2.60634
2.6147
2.62323
2.63991
2.6604
2.67471
2.70975
2.79633
2.97901
3.72005
4.20269
4.98312
2.3556
2.38848
2.41558
2.43657
2.44889
2.46026
2.473
2.48535
2.49515
2.50227
2.51118
2.52003
2.52845
2.53587
2.54615
2.56096
2.57558
2.58802
2.62747
2.69485
2.88955
3.57914
4.03711
2.24783
2.27685
2.29944
2.31812
2.32821
2.33748
2.34836
2.35846
2.36633
2.37161
2.37781
2.38452
2.3913
2.39715
2.40416
2.41268
2.424
2.43165
2.44577
2.47929
2.52783
2.69658
3.31138
2.1638
2.19218
2.21139
2.22927
2.23883
2.24778
2.25825
2.26803
2.27595
2.28111
2.28627
2.29153
2.29775
2.303
2.30935
2.31524
2.32423
2.33157
2.33934
2.35259
2.37463
2.42107
2.53084
2.03571
2.05775
2.06982
2.082
2.08808
2.09388
2.10129
2.10829
2.11416
2.11797
2.12113
2.12396
2.1276
2.1307
2.13488
2.13847
2.14389
2.14891
2.15503
2.15947
2.17063
2.19538
2.22143
1.96178
1.98369
1.99049
1.99984
2.00471
2.0096
2.0162
2.02266
2.02838
2.03247
2.03568
2.03833
2.04151
2.04429
2.04798
2.05132
2.05577
2.05957
2.06507
2.06922
2.07698
2.08767
2.11866
1.78236
1.7904
1.79344
1.79612
1.79557
1.7948
1.79562
1.79708
1.79889
1.80079
1.80281
1.80305
1.8037
1.8046
1.80636
1.80842
1.81098
1.81322
1.81562
1.81746
1.82003
1.82037
1.83021
3.07437
2.74818
2.56023
2.4502
2.37955
2.32514
2.29382
2.26394
2.24974
2.2339
2.22643
2.21933
2.21974
2.22355
2.23342
2.25321
2.28729
2.3405
2.42305
2.51145
2.6413
2.72832
2.80558
3.08509
2.76547
2.58003
2.46287
2.38853
2.33525
2.30163
2.27018
2.25365
2.23737
2.22881
2.22111
2.22038
2.22339
2.23292
2.25229
2.28524
2.336
2.41173
2.5021
2.61978
2.70201
2.76707
3.10154
2.78346
2.59251
2.4765
2.401
2.342
2.30597
2.27378
2.25611
2.23996
2.23066
2.2229
2.22124
2.22417
2.2331
2.25073
2.28138
2.32946
2.40431
2.49058
2.60429
2.679
2.7425
3.1144
2.80424
2.61987
2.49183
2.41338
2.35499
2.3152
2.28218
2.26164
2.24426
2.23326
2.22529
2.22236
2.22486
2.23249
2.24877
2.27761
2.32356
2.39746
2.47854
2.5863
2.66179
2.73485
3.1302
2.8266
2.62941
2.50297
2.42722
2.36356
2.32118
2.28737
2.26482
2.24845
2.23617
2.22849
2.22347
2.22517
2.23185
2.24673
2.27368
2.31741
2.38789
2.46983
2.55834
2.64919
2.72129
3.14517
2.83565
2.65037
2.52659
2.44128
2.37307
2.32599
2.29165
2.26799
2.25096
2.23766
2.22977
2.22394
2.22536
2.23133
2.24506
2.26991
2.31305
2.37557
2.47002
2.53701
2.64508
2.72268
3.1504
2.85214
2.66682
2.53342
2.44332
2.37659
2.33157
2.29878
2.27273
2.25511
2.24014
2.23174
2.2246
2.22585
2.23108
2.24501
2.26663
2.31402
2.37545
2.46058
2.53348
2.64626
2.71237
3.15349
2.85469
2.66592
2.53352
2.44459
2.3792
2.33189
2.29827
2.27134
2.25394
2.23851
2.23041
2.22289
2.22361
2.22788
2.24236
2.26386
2.31068
2.36814
2.44892
2.52825
2.63476
2.69646
2.88513
2.56711
2.4056
2.33179
2.28008
2.23632
2.22281
2.21455
2.20337
2.19439
2.19632
2.22143
2.2819
2.38372
2.50656
2.6488
2.79171
3.02631
3.25091
3.57962
3.89818
4.26425
4.6437
2.89971
2.57345
2.41322
2.33525
2.28484
2.24269
2.2288
2.21836
2.20532
2.19513
2.19383
2.20243
2.23184
2.30306
2.41049
2.5441
2.6824
2.91169
3.13229
3.45518
3.77713
4.12645
4.50252
2.90269
2.57817
2.41984
2.3398
2.29036
2.24905
2.23476
2.22358
2.20924
2.19872
2.19614
2.20185
2.22707
2.27764
2.36719
2.48627
2.61533
2.83009
3.03881
3.35699
3.6665
3.99543
4.35764
2.91826
2.58606
2.4274
2.34259
2.29482
2.25546
2.23787
2.2259
2.21263
2.20258
2.19905
2.20149
2.21144
2.23603
2.30309
2.40788
2.52783
2.72843
2.92862
3.23433
3.5319
3.84376
4.18418
2.92267
2.59254
2.43581
2.34788
2.30042
2.25977
2.24265
2.22911
2.21644
2.207
2.2023
2.20404
2.21134
2.22969
2.27403
2.35833
2.4662
2.64431
2.82881
3.12578
3.39513
3.6768
3.99348
2.93942
2.60244
2.44402
2.35239
2.30554
2.2669
2.24518
2.23171
2.22047
2.21168
2.20718
2.20697
2.21211
2.22515
2.25331
2.31714
2.41245
2.56722
2.74063
3.01493
3.24918
3.51684
3.82573
2.94502
2.61189
2.45212
2.35814
2.30989
2.27069
2.24871
2.23427
2.22283
2.21558
2.21078
2.2093
2.21301
2.22306
2.24418
2.28936
2.36937
2.50039
2.65696
2.91021
3.1163
3.3647
3.6411
2.96326
2.62391
2.46225
2.36606
2.31633
2.27783
2.25256
2.23687
2.22618
2.21751
2.21468
2.21247
2.21509
2.22383
2.24305
2.2794
2.34511
2.45138
2.59823
2.81591
2.99662
3.20909
3.4853
2.96988
2.63528
2.46959
2.37268
2.32012
2.28314
2.25561
2.24012
2.22903
2.22001
2.21707
2.2138
2.21653
2.22405
2.24031
2.27103
2.32467
2.4128
2.54512
2.73053
2.88595
3.08322
3.3435
2.99006
2.65104
2.48268
2.38359
2.32806
2.28894
2.2608
2.24245
2.23223
2.22149
2.21943
2.21548
2.21775
2.22421
2.2399
2.26878
2.31706
2.39108
2.51287
2.66488
2.7955
2.96979
3.21233
2.99741
2.66288
2.49018
2.3912
2.33225
2.29611
2.26439
2.24641
2.23628
2.2242
2.22058
2.21607
2.21822
2.22398
2.23856
2.26484
2.30825
2.37582
2.48544
2.61126
2.72261
2.90127
3.0956
3.01889
2.68167
2.5063
2.40461
2.34197
2.30011
2.27051
2.24878
2.23891
2.22557
2.22177
2.21663
2.21856
2.22395
2.23751
2.26239
2.30382
2.36685
2.47105
2.57262
2.68179
2.85487
2.99269
3.02698
2.69536
2.51591
2.41301
2.34712
2.30793
2.27583
2.25349
2.24271
2.22834
2.22311
2.21712
2.21877
2.22428
2.23676
2.26049
2.29944
2.35899
2.45695
2.54694
2.66273
2.8254
2.9048
3.04809
2.71413
2.53222
2.42728
2.35929
2.31181
2.28197
2.25601
2.24452
2.22965
2.22386
2.21758
2.21896
2.22387
2.23546
2.25786
2.29545
2.35335
2.44716
2.53002
2.66193
2.78038
2.84212
3.05738
2.73147
2.54718
2.43704
2.36539
2.32028
2.28858
2.26113
2.24795
2.23241
2.22554
2.21852
2.21944
2.22385
2.23524
2.25715
2.2937
2.34964
2.43614
2.52424
2.65886
2.74747
2.82588
2.83871
2.81028
2.88651
2.9592
3.05154
3.07948
3.11924
3.14024
3.16634
3.17765
3.19341
3.21891
3.25026
3.29779
3.36364
3.4713
3.61168
3.80357
4.07055
4.39328
4.73857
5.05785
5.37179
2.82259
2.75487
2.84208
2.92491
3.01738
3.05485
3.11603
3.13767
3.16552
3.17734
3.18825
3.21552
3.24829
3.294
3.36278
3.46825
3.60898
3.80033
4.04901
4.36841
4.75256
5.08753
5.36954
2.80218
2.72087
2.7997
2.89054
2.99232
3.0242
3.09576
3.1194
3.15635
3.17436
3.1843
3.21593
3.24638
3.29213
3.35901
3.46417
3.60472
3.79507
4.04697
4.3768
4.74596
5.07666
5.34918
2.78876
2.66446
2.75524
2.85099
2.95592
2.99703
3.07537
3.10435
3.1417
3.17094
3.18237
3.21063
3.24367
3.28857
3.35894
3.46046
3.60029
3.79001
4.03921
4.39028
4.76453
5.08376
5.39497
2.77752
2.62689
2.70938
2.81206
2.92208
2.9598
3.05275
3.08028
3.1245
3.1627
3.18134
3.2073
3.24027
3.28456
3.35437
3.45563
3.59362
3.78311
4.02952
4.38603
4.76911
5.09652
5.40712
2.7769
2.57688
2.66174
2.76827
2.87841
2.92472
3.02396
3.05332
3.10236
3.14936
3.17732
3.20413
3.23492
3.27973
3.35173
3.45041
3.58766
3.77629
4.01976
4.38425
4.76998
5.09003
5.4234
2.78034
2.54519
2.61986
2.7223
2.83604
2.878
2.99197
3.02227
3.08008
3.12879
3.16964
3.19935
3.22834
3.27319
3.34612
3.44459
3.57974
3.76866
4.00968
4.36625
4.74653
5.09663
5.41701
2.78728
2.50396
2.56975
2.67333
2.78563
2.82769
2.9528
2.98672
3.0513
3.10836
3.15785
3.18929
3.22025
3.26538
3.34042
3.4378
3.57324
3.76199
4.0003
4.35969
4.73042
5.06876
5.44171
2.79583
2.48389
2.53049
2.62767
2.72993
2.77057
2.90794
2.94561
3.01895
3.07781
3.13979
3.17409
3.209
3.25495
3.33163
3.42993
3.56477
3.75476
3.99227
4.34073
4.7123
5.05735
5.43139
2.80409
2.46007
2.48477
2.5712
2.67199
2.70568
2.85426
2.89673
2.97862
3.04481
3.11392
3.15644
3.19456
3.24207
3.32137
3.4211
3.55646
3.74806
3.98445
4.32876
4.69559
5.04382
5.40397
2.81111
2.45509
2.44968
2.53095
2.60826
2.63712
2.79549
2.84342
2.93488
3.00279
3.0835
3.13273
3.17675
3.22595
3.30778
3.40912
3.54528
3.73897
3.97522
4.30594
4.67364
5.03289
5.38898
2.81682
2.45294
2.41293
2.47502
2.54504
2.5652
2.72592
2.78118
2.88073
2.95557
3.04321
3.10419
3.15339
3.20648
3.29164