/*--------------------------------*- C++ -*----------------------------------*\
  =========                 |
  \\      /  F ield         | OpenFOAM: The Open Source CFD Toolbox
   \\    /   O peration     | Website:  https://openfoam.org
    \\  /    A nd           | Version:  7
     \\/     M anipulation  |
\*---------------------------------------------------------------------------*/
FoamFile
{
    version     2.0;
    format      ascii;
    class       volScalarField;
    location    "50";
    object      p;
}
// * * * * * * * * * * * * * * * * * * * * * * * * * * * * * * * * * * * * * //

dimensions      [0 2 -2 0 0 0 0];

internalField   nonuniform List<scalar> 
12842
(
0.849269
0.901267
0.984733
1.11667
1.28752
1.4856
1.70851
1.96331
2.26501
2.6363
3.10682
3.70986
4.47602
5.42572
6.5628
7.86946
9.3074
10.8232
12.3557
13.8439
15.2346
16.4893
17.5882
0.831382
0.897114
0.978081
1.10978
1.27301
1.44806
1.62774
1.8148
2.02109
2.26899
2.59172
3.02962
3.62231
4.39956
5.37325
6.53177
7.84197
9.25456
10.711
12.1504
13.519
14.7708
15.884
0.816417
0.890608
0.970406
1.10338
1.25904
1.41022
1.54563
1.66406
1.77471
1.90081
2.08085
2.36377
2.79858
3.4227
4.25238
5.27749
6.46565
7.76913
9.13194
10.4953
11.8067
13.0161
14.1029
0.804991
0.879308
0.958736
1.09478
1.24308
1.37031
1.46156
1.51162
1.52726
1.53376
1.57657
1.71454
2.00586
2.49333
3.19359
4.09343
5.15798
6.34003
7.58752
8.84606
10.0684
11.2016
12.2313
0.793789
0.863982
0.942263
1.08343
1.22418
1.3275
1.37514
1.35727
1.27832
1.16657
1.0759
1.07588
1.23322
1.59351
2.17002
2.94302
3.87358
4.91575
6.02423
7.15208
8.25996
9.29393
10.2483
0.780995
0.84621
0.921457
1.07083
1.20343
1.28387
1.28992
1.20643
1.0354
0.808973
0.590341
0.46
0.491727
0.731197
1.18502
1.82441
2.60613
3.48747
4.43323
5.40664
6.37894
7.29475
8.15912
0.766243
0.826821
0.897415
1.05907
1.18275
1.24325
1.21197
1.0679
0.810602
0.476638
0.138922
-0.111734
-0.196272
-0.071887
0.258527
0.755539
1.37225
2.0713
2.83095
3.62649
4.44174
5.21976
5.97843
0.750568
0.806031
0.871129
1.04821
1.1613
1.20596
1.14275
0.945226
0.610223
0.178616
-0.267715
-0.628974
-0.822872
-0.811358
-0.60772
-0.262333
0.175536
0.675153
1.23028
1.8282
2.46793
3.08827
3.72635
0.730843
0.783561
0.846112
1.04208
1.14605
1.18323
1.09835
0.86169
0.46793
-0.0373344
-0.564285
-1.00628
-1.28061
-1.35629
-1.25773
-1.04574
-0.770592
-0.456413
-0.0934092
0.314848
0.786346
1.24714
1.77275
0.713777
0.759963
0.825437
1.04033
1.13596
1.17015
1.0687
0.801229
0.361218
-0.200361
-0.786567
-1.2854
-1.61573
-1.75451
-1.73713
-1.634
-1.49609
-1.34198
-1.14848
-0.911406
-0.597498
-0.284505
0.117933
0.69797
0.736297
0.809659
1.0395
1.12573
1.15721
1.03828
0.739884
0.254285
-0.361843
-1.00513
-1.55908
-1.9452
-2.14854
-2.2149
-2.22314
-2.22471
-2.23391
-2.21597
-2.16075
-2.02094
-1.87457
-1.6206
0.682528
0.712711
0.798919
1.03847
1.11552
1.14401
1.00661
0.677106
0.146347
-0.523235
-1.22285
-1.83219
-2.27629
-2.54776
-2.7013
-2.82303
-2.96465
-3.13816
-3.29944
-3.43465
-3.48312
-3.52102
-3.43529
0.666736
0.689506
0.79231
1.03669
1.10624
1.13166
0.975765
0.615932
0.0412515
-0.680165
-1.4351
-2.09999
-2.60385
-2.94594
-3.18855
-3.42392
-3.70449
-4.04227
-4.38615
-4.72023
-4.9705
-5.20918
-5.31144
0.650364
0.667615
0.78873
1.03403
1.09852
1.12081
0.947193
0.558499
-0.0583023
-0.829675
-1.63902
-2.35971
-2.92496
-3.33939
-3.67132
-4.01863
-4.43543
-4.93649
-5.46594
-6.00691
-6.47164
-6.9257
-7.23351
0.633728
0.648169
0.787266
1.03093
1.09281
1.11189
0.921859
0.5061
-0.150853
-0.970505
-1.83396
-2.61167
-3.24081
-3.72976
-4.15142
-4.60866
-5.15873
-5.8217
-6.53887
-7.29308
-7.98198
-8.66237
-9.18832
0.617088
0.631964
0.787167
1.02794
1.08926
1.10511
0.900246
0.459272
-0.236021
-1.10284
-2.02114
-2.85842
-3.55541
-4.12231
-4.63477
-5.20018
-5.88021
-6.70243
-7.60674
-8.57614
-9.49295
-10.4034
-11.1529
0.600647
0.619254
0.787773
1.02546
1.08764
1.10035
0.882374
0.417976
-0.314048
-1.2274
-2.20206
-3.10248
-3.87225
-4.52126
-5.12614
-5.79793
-6.60375
-7.58009
-8.6664
-9.84591
-10.9854
-12.1205
-13.09
0.584578
0.609905
0.788664
1.02373
1.08762
1.09749
0.868127
0.38206
-0.385184
-1.34466
-2.37743
-3.34468
-4.19215
-4.92719
-5.62547
-6.40062
-7.32563
-8.44629
-9.7027
-11.0783
-12.4255
-13.7677
-14.942
0.569153
0.603504
0.789566
1.02273
1.08879
1.09631
0.857288
0.35134
-0.449527
-1.45452
-2.54679
-3.58396
-4.51306
-5.3368
-6.12802
-7.00121
-8.03541
-9.28545
-10.6923
-12.238
-13.7651
-15.2818
-16.6356
0.554588
0.599551
0.790382
1.02242
1.09088
1.09677
0.849767
0.325745
-0.507115
-1.55686
-2.7096
-3.81898
-4.83259
-5.74637
-6.62841
-7.59214
-8.72191
-10.0798
-11.6077
-13.2848
-14.9499
-16.5945
-18.0874
0.541207
0.597483
0.790877
1.02239
1.09331
1.09833
0.844935
0.304726
-0.558317
-1.65173
-2.86533
-4.04837
-5.14837
-6.15262
-7.12272
-8.16727
-9.37288
-10.8071
-12.4151
-14.1722
-15.9206
-17.6327
-19.2032
0.528839
0.596932
0.791326
1.02301
1.09679
1.10193
0.843634
0.288884
-0.602947
-1.73917
-3.01398
-4.27164
-5.45936
-6.55415
-7.60771
-8.71902
-9.97398
-11.445
-13.083
-14.8598
-16.6248
-18.3339
-19.9042
0.518272
0.597261
0.79087
1.02287
1.0994
1.10537
0.843702
0.27651
-0.642137
-1.81995
-3.15616
-4.4898
-5.76742
-6.95321
-8.08469
-9.24599
-10.5194
-11.9811
-13.5898
-15.3154
-17.0201
-18.6465
-20.1316
0.507314
0.599083
0.792813
1.02752
1.10846
1.11645
0.852122
0.27353
-0.669693
-1.88457
-3.27575
-4.678
-6.03849
-7.30909
-8.51144
-9.71068
-10.9796
-12.3945
-13.9218
-15.5308
-17.102
-18.5731
-19.8896
0.499353
0.602503
0.79715
1.03565
1.12091
1.13037
0.86286
0.273259
-0.692126
-1.93954
-3.37898
-4.84278
-6.27885
-7.62762
-8.89314
-10.1165
-11.3529
-12.674
-14.0547
-15.4689
-16.8254
-18.0715
-19.1602
0.496404
0.608425
0.803986
1.0458
1.13403
1.14251
0.868029
0.262775
-0.729643
-2.0139
-3.50431
-5.03072
-6.54072
-7.96312
-9.28149
-10.5086
-11.674
-12.8431
-14.0049
-15.1494
-16.2247
-17.1979
-18.0239
0.497535
0.615575
0.811243
1.05504
1.14404
1.14866
0.863727
0.239501
-0.782581
-2.10519
-3.64632
-5.23393
-6.8149
-8.30712
-9.6714
-10.8886
-11.9555
-12.9294
-13.8203
-14.6474
-15.4089
-16.0912
-16.6426
0.499186
0.622012
0.816943
1.06167
1.1497
1.14852
0.8513
0.207075
-0.844511
-2.20402
-3.79307
-5.4387
-7.0874
-8.64757
-10.0549
-11.2568
-12.2107
-12.9644
-13.5543
-14.0406
-14.4808
-14.876
-15.1538
0.499522
0.626808
0.820345
1.06534
1.1513
1.14339
0.833517
0.170015
-0.909102
-2.30249
-3.93568
-5.63603
-7.35014
-8.97872
-10.4303
-11.6187
-12.4573
-12.9819
-13.2579
-13.393
-13.5131
-13.6313
-13.6352
0.498614
0.630151
0.821898
1.06682
1.15013
1.1353
0.813364
0.132253
-0.971675
-2.39567
-4.06957
-5.82242
-7.60128
-9.30143
-10.8021
-11.986
-12.7193
-13.0208
-12.9826
-12.7637
-12.5618
-12.4096
-12.1371
0.497114
0.632571
0.822443
1.06719
1.1477
1.12633
0.793482
0.0968495
-1.02902
-2.48059
-4.19247
-5.99669
-7.84084
-9.61775
-11.1757
-12.3714
-13.022
-13.1221
-12.7826
-12.215
-11.6916
-11.2629
-10.7068
0.495537
0.634533
0.822705
1.06735
1.14518
1.11792
0.775497
0.0653932
-1.07987
-2.55666
-4.30466
-6.16019
-8.07104
-9.93166
-11.5584
-12.7896
-13.3937
-13.3324
-12.7182
-11.8265
-10.9973
-10.2688
-9.40726
0.494125
0.636293
0.823104
1.06777
1.14316
1.11071
0.759935
0.0380702
-1.12458
-2.62494
-4.40784
-6.31501
-8.29381
-10.2456
-11.9547
-13.2522
-13.8598
-13.6983
-12.8615
-11.6947
-10.606
-9.58219
-8.40645
0.492947
0.638003
0.823835
1.06861
1.14177
1.10471
0.746517
0.0140941
-1.16461
-2.68763
-4.5047
-6.46399
-8.51139
-10.5621
-12.3688
-13.7699
-14.4438
-14.2679
-13.2946
-11.9256
-10.6523
-9.40649
-7.93279
0.49196
0.639713
0.824923
1.06983
1.14092
1.09965
0.734653
-0.00759959
-1.20157
-2.74684
-4.59742
-6.60893
-8.72435
-10.8808
-12.801
-14.3481
-15.1625
-15.0812
-14.094
-12.6255
-11.2777
-9.93337
-8.23481
0.491096
0.641461
0.826333
1.07134
1.14043
1.09519
0.72372
-0.0280147
-1.23688
-2.80429
-4.68775
-6.75126
-8.93297
-11.2016
-13.2509
-14.9899
-16.029
-16.168
-15.321
-13.928
-12.67
-11.3445
-9.53091
0.490276
0.643241
0.827982
1.07302
1.14015
1.09105
0.713267
-0.0478299
-1.27143
-2.86099
-4.77643
-6.89115
-9.13604
-11.5221
-13.7145
-15.6923
-17.047
-17.5433
-17.0347
-15.9891
-15.0439
-13.8865
-12.1076
0.489457
0.64507
0.829811
1.07479
1.13997
1.08704
0.703008
-0.0674522
-1.3057
-2.91741
-4.86371
-7.02857
-9.33249
-11.8402
-14.1874
-16.4494
-18.2126
-19.2138
-19.2944
-18.9196
-18.5348
-17.8067
-16.3999
0.488612
0.64694
0.831756
1.07662
1.13985
1.08309
0.692837
-0.0870016
-1.33979
-2.97349
-4.94918
-7.16265
-9.52025
-12.1522
-14.6618
-17.2476
-19.5083
-21.1707
-22.1135
-22.7077
-23.1956
-23.3462
-22.7744
0.487759
0.648868
0.833796
1.07848
1.13976
1.0792
0.682741
-0.106471
-1.37359
-3.02902
-5.03235
-7.29271
-9.6976
-12.4544
-15.1296
-18.0686
-20.9041
-23.3774
-25.4198
-27.2522
-29.0112
-30.4813
-31.0545
0.486916
0.650847
0.835907
1.0804
1.13975
1.0754
0.672783
-0.125732
-1.40686
-3.08353
-5.11243
-7.4176
-9.86221
-12.7419
-15.5793
-18.8856
-22.3534
-25.7547
-29.0638
-32.384
-35.7626
-38.7459
-40.5131
0.486128
0.652896
0.838101
1.08239
1.13983
1.07172
0.663023
-0.144667
-1.43937
-3.13666
-5.18882
-7.53654
-10.0123
-13.0097
-15.9995
-19.6674
-23.796
-28.1828
-32.8469
-37.8321
-42.949
-47.352
-50.1665
0.485423
0.655005
0.840372
1.08448
1.14005
1.0682
0.653538
-0.163134
-1.47085
-3.18797
-5.26085
-7.64851
-10.1457
-13.2518
-16.3767
-20.377
-25.1566
-30.5091
-36.5263
-43.2057
-49.9522
-55.5747
-59.2536
0.484845
0.657188
0.842744
1.08668
1.1404
1.06487
0.644363
-0.18105
-1.50113
-3.2372
-5.32808
-7.75291
-10.2612
-13.4623
-16.6988
-20.9757
-26.3529
-32.5696
-39.8566
-48.134
-56.2916
-62.8742
-67.2029
0.4844
0.659429
0.84521
1.08901
1.1409
1.06175
0.635539
-0.198327
-1.53005
-3.28408
-5.39014
-7.84901
-10.3574
-13.6346
-16.9547
-21.4242
-27.3008
-34.2111
-42.6147
-52.272
-61.5503
-68.8532
-73.6846
0.484124
0.661746
0.847792
1.09147
1.14154
1.05882
0.627062
-0.214945
-1.55754
-3.3285
-5.44686
-7.9364
-10.4338
-13.7623
-17.1365
-21.6873
-27.9264
-35.3197
-44.6052
-55.2723
-65.3191
-73.2329
-78.5623
0.483962
0.664097
0.850469
1.09405
1.14233
1.05609
0.618947
-0.230884
-1.58357
-3.37047
-5.49835
-8.01492
-10.491
-13.8396
-17.2405
-21.7401
-28.1671
-35.7416
-45.5161
-56.9605
-67.889
-76.4906
-82.2724
0.483992
0.66654
0.853295
1.09677
1.14327
1.05354
0.611161
-0.246207
-1.60826
-3.41022
-5.54507
-8.08486
-10.5308
-13.8617
-17.2676
-21.5722
-27.9576
-35.3934
-45.6031
-58.1496
-69.6917
-78.4837
-84.4631
0.48353
0.668728
0.856104
1.09961
1.14446
1.0514
0.603921
-0.260881
-1.63206
-3.44897
-5.58991
-8.15036
-10.5642
-13.8382
-17.2425
-21.226
-27.2723
-34.4745
-45.4362
-58.3085
-69.6502
-78.3439
-84.1121
0.483322
0.671101
0.859322
1.10317
1.14664
1.05048
0.597908
-0.27487
-1.65645
-3.49089
-5.64228
-8.22678
-10.624
-13.8162
-17.2417
-20.8425
-26.2674
-33.8645
-45.3206
-56.9303
-67.6116
-76.0377
-81.3994
0.48417
0.67412
0.863692
1.10819
1.15063
1.05153
0.593405
-0.288965
-1.6842
-3.54158
-5.7126
-8.32941
-10.7397
-13.8478
-17.325
-20.6023
-25.2717
-33.7524
-44.4538
-54.3449
-64.0036
-72.2345
-77.2719
0.48614
0.677787
0.869311
1.11467
1.15632
1.05409
0.589301
-0.305386
-1.71916
-3.60668
-5.80911
-8.46887
-10.9268
-13.9702
-17.5147
-20.64
-24.5864
-33.7907
-42.4254
-50.8317
-59.641
-67.8944
-72.9942
0.48874
0.681707
0.875711
1.12207
1.1629
1.05695
0.583762
-0.326735
-1.76478
-3.69004
-5.93596
-8.64924
-11.1875
-14.2045
-17.8168
-21.0192
-24.2804
-33.5863
-39.7883
-47.1169
-55.567
-63.7467
-69.112
0.491678
0.685642
0.882521
1.12984
1.16962
1.059
0.575261
-0.354957
-1.82324
-3.7935
-6.09385
-8.86976
-11.5145
-14.5538
-18.2252
-21.7421
-24.351
-33.0174
-37.2766
-43.8334
-52.4538
-60.6172
-66.1939
0.494916
0.68954
0.889517
1.13766
1.17599
1.05968
0.563386
-0.389804
-1.8928
-3.91241
-6.27334
-9.11504
-11.8775
-14.9828
-18.6958
-22.6965
-24.6799
-32.2444
-35.4476
-41.4901
-50.5378
-58.9005
-64.5949
0.498349
0.693329
0.896538
1.14526
1.18171
1.05865
0.547829
-0.431343
-1.97285
-4.04465
-6.46919
-9.37555
-12.2549
-15.4611
-19.1928
-23.7872
-25.3143
-31.4717
-34.4372
-40.4487
-49.9672
-58.3865
-64.2435
0.502262
0.697341
0.903906
1.15314
1.18738
1.05683
0.530116
-0.476904
-2.05881
-4.18287
-6.66952
-9.63381
-12.6172
-15.9414
-19.6724
-24.8241
-26.0088
-30.6774
-33.8795
-40.295
-50.1232
-58.3442
-64.0895
0.506384
0.701375
0.911476
1.16091
1.19268
1.054
0.510695
-0.524519
-2.14581
-4.31731
-6.85656
-9.86126
-12.9177
-16.3501
-20.0577
-25.7431
-26.8461
-30.3375
-34.0551
-40.9695
-50.8389
-58.8929
-64.1587
0.510304
0.705017
0.918353
1.16758
1.19625
1.04864
0.487999
-0.575377
-2.2341
-4.44679
-7.02696
-10.0525
-13.146
-16.6627
-20.2993
-26.4026
-27.6448
-30.4636
-34.6942
-41.9575
-51.4655
-59.2322
-63.7854
0.513882
0.708187
0.924352
1.17299
1.19806
1.04099
0.462726
-0.628177
-2.32179
-4.56921
-7.17875
-10.2068
-13.302
-16.869
-20.3671
-26.7133
-28.2358
-30.7701
-35.2853
-42.7416
-51.4967
-58.4847
-62.2368
0.517315
0.711167
0.92994
1.17784
1.19912
1.03254
0.437082
-0.679792
-2.40473
-4.67972
-7.30661
-10.3192
-13.3802
-16.955
-20.2412
-26.6386
-28.5281
-31.0595
-35.5581
-42.9675
-50.6655
-56.5272
-59.3842
0.520764
0.714178
0.935486
1.18261
1.20016
1.02437
0.412569
-0.728211
-2.48049
-4.77598
-7.40893
-10.3903
-13.384
-16.9224
-19.9316
-26.1969
-28.4889
-31.221
-35.4346
-42.4794
-48.9928
-53.5788
-55.4989
0.52422
0.717242
0.941068
1.18747
1.20143
1.01682
0.389654
-0.772987
-2.549
-4.8592
-7.48948
-10.4286
-13.3295
-16.7948
-19.4822
-25.4574
-28.1402
-31.1872
-34.9223
-41.2803
-46.6116
-49.9018
-50.9475
0.527665
0.720351
0.946686
1.1924
1.20291
1.00986
0.368176
-0.814621
-2.61162
-4.93259
-7.55496
-10.4469
-13.2404
-16.6096
-18.9569
-24.5232
-27.5568
-30.9225
-34.0516
-39.4815
-43.6633
-45.9132
-46.1775
0.531059
0.723464
0.952292
1.19737
1.20452
1.00333
0.34781
-0.853861
-2.66999
-4.99968
-7.61223
-10.4577
-13.1405
-16.4064
-18.4239
-23.5056
-26.8508
-30.4467
-32.9072
-37.323
-40.345
-41.8636
-41.4659
0.534408
0.726583
0.957874
1.20229
1.20617
0.997054
0.328213
-0.891417
-2.72556
-5.06336
-7.66675
-10.4711
-13.0489
-16.2181
-17.9408
-22.5029
-26.0796
-29.7628
-31.6705
-35.1763
-37.1199
-37.889
-36.9475
0.537689
0.729684
0.963392
1.20716
1.20781
0.990929
0.309156
-0.927778
-2.77932
-5.12553
-7.72203
-10.493
-12.978
-16.0673
-17.5484
-21.5874
-25.2527
-28.8282
-30.443
-33.166
-34.1815
-34.1155
-32.7534
0.540915
0.732778
0.968848
1.21193
1.20936
0.984856
0.290466
-0.963275
-2.83187
-5.18725
-7.77978
-10.5262
-12.9333
-15.9649
-17.2672
-20.8018
-24.4043
-27.6876
-29.1508
-31.1447
-31.3738
-30.6118
-28.9302
0.544062
0.735845
0.974214
1.21661
1.21084
0.978808
0.272073
-0.998063
-2.88347
-5.24886
-7.84033
-10.5706
-12.9151
-15.9118
-17.0997
-20.1623
-23.5896
-26.431
-27.7243
-29.0186
-28.5824
-27.3119
-25.4414
0.547148
0.738899
0.979499
1.22116
1.21219
0.97274
0.253911
-1.03223
-2.9342
-5.31026
-7.90304
-10.624
-12.9195
-15.9011
-17.0334
-19.662
-22.8484
-25.1291
-26.1517
-26.8006
-25.8447
-24.1785
-22.2447
0.550149
0.741919
0.98468
1.22559
1.21344
0.966654
0.235973
-1.06579
-2.98398
-5.37108
-7.96676
-10.6836
-12.9406
-15.9212
-17.0461
-19.2773
-22.1885
-23.8355
-24.4729
-24.5238
-23.1899
-21.3639
-19.3831
0.553086
0.744917
0.989768
1.22989
1.21455
0.960514
0.218222
-1.09876
-3.0327
-5.43079
-8.03004
-10.7456
-12.9708
-15.9573
-17.1096
-18.9781
-21.6071
-22.5961
-22.7605
-22.2663
-20.6931
-18.922
-16.8782
0.555937
0.747869
0.994739
1.23406
1.21553
0.954324
0.200662
-1.13109
-3.08017
-5.48882
-8.09137
-10.8064
-13.0025
-15.9942
-17.1947
-18.7308
-21.0702
-21.4374
-21.09
-20.1102
-18.4905
-16.7392
-14.6373
0.558726
0.750791
0.999605
1.23807
1.21635
0.948039
0.183257
-1.16277
-3.12622
-5.54456
-8.14924
-10.8625
-13.0284
-16.0171
-17.2718
-18.5373
-20.5643
-20.3567
-19.5017
-18.1073
-16.5813
-14.7222
-12.5915
0.561428
0.753656
1.00434
1.24192
1.217
0.941661
0.166017
-1.19374
-3.17064
-5.59742
-8.20227
-10.9108
-13.0421
-16.013
-17.3115
-18.3405
-20.1079
-19.3409
-18.0627
-16.407
-14.8511
-12.8128
-10.6947
0.564068
0.756481
1.00895
1.2456
1.21745
0.935146
0.148914
-1.22398
-3.21322
-5.64683
-8.24917
-10.9485
-13.0381
-15.971
-17.2946
-18.0222
-19.6693
-18.3849
-16.7438
-15.0397
-13.2893
-11.0791
-8.98275
0.566618
0.759241
1.01342
1.2491
1.2177
0.928497
0.131968
-1.25339
-3.25374
-5.69224
-8.28884
-10.9735
-13.0123
-15.8833
-17.216
-17.5449
-19.0465
-17.4603
-15.5691
-13.8477
-11.8714
-9.60754
-7.52804
0.569103
0.761952
1.01775
1.25238
1.2177
0.921674
0.115168
-1.28192
-3.29199
-5.73316
-8.32031
-10.984
-12.9616
-15.7438
-17.0736
-16.9613
-18.1348
-16.4974
-14.5061
-12.6897
-10.5472
-8.33575
-6.261
0.571492
0.764588
1.02191
1.25546
1.21748
0.91469
0.0985479
-1.30947
-3.32774
-5.76914
-8.34282
-10.9788
-12.8843
-15.5499
-16.8657
-16.35
-17.0255
-15.4237
-13.4526
-11.5462
-9.28586
-7.16382
-5.13436
0.573808
0.767168
1.02591
1.25829
1.21697
0.90751
0.0821064
-1.33597
-3.36079
-5.79979
-8.35573
-10.9568
-12.7797
-15.3013
-16.5896
-15.7701
-15.8635
-14.2522
-12.3593
-10.4211
-8.12346
-6.08123
-4.18227
0.576018
0.769664
1.02974
1.26089
1.21621
0.900154
0.0658874
-1.36132
-3.39094
-5.82476
-8.3586
-10.9178
-12.6482
-15.0012
-16.2434
-15.2441
-14.7502
-13.0757
-11.2814
-9.34494
-7.11695
-5.15738
-3.40734
0.578146
0.772095
1.03338
1.26323
1.21514
0.892591
0.0498959
-1.38544
-3.41803
-5.84378
-8.35108
-10.8615
-12.4907
-14.654
-15.8258
-14.7522
-13.7549
-11.9853
-10.2853
-8.3676
-6.26714
-4.3642
-2.76351
0.580156
0.774433
1.03683
1.2653
1.21378
0.884844
0.0341779
-1.40824
-3.44188
-5.85661
-8.33301
-10.7882
-12.3092
-14.2664
-15.3397
-14.2365
-12.9417
-11.0162
-9.36465
-7.51636
-5.53304
-3.68314
-2.21194
0.582074
0.776695
1.04007
1.26708
1.21209
0.876885
0.0187388
-1.42966
-3.46236
-5.86304
-8.30424
-10.6982
-12.1057
-13.8454
-14.7995
-13.5992
-12.2828
-10.1998
-8.54111
-6.76058
-4.85523
-3.11179
-1.76306
0.58386
0.778855
1.0431
1.26858
1.21008
0.868736
0.00362429
-1.4496
-3.47931
-5.86292
-8.26478
-10.5921
-11.8827
-13.3987
-14.2288
-12.874
-11.6726
-9.5244
-7.827
-6.06248
-4.22474
-2.64309
-1.41922
0.585543
0.780928
1.04591
1.26975
1.20772
0.860368
-0.011161
-1.468
-3.49262
-5.85608
-8.21459
-10.4703
-11.6428
-12.9329
-13.6481
-12.1635
-11.043
-8.91875
-7.18984
-5.43258
-3.68996
-2.28174
-1.17673
0.587082
0.782885
1.04847
1.2706
1.20502
0.851804
-0.0255715
-1.48477
-3.50214
-5.84239
-8.15377
-10.3339
-11.3889
-12.4553
-13.0682
-11.5325
-10.387
-8.31998
-6.60399
-4.88868
-3.27925
-2.02036
-1.01359
0.588505
0.784744
1.0508
1.27111
1.20194
0.843015
-0.0396013
-1.49986
-3.50774
-5.8217
-8.08232
-10.1833
-11.1234
-11.9725
-12.49
-10.9824
-9.72572
-7.72354
-6.06921
-4.43901
-2.97159
-1.82139
-0.903986
0.589769
0.786475
1.05285
1.27126
1.19848
0.834022
-0.0532027
-1.51316
-3.50929
-5.79388
-8.00038
-10.0194
-10.8489
-11.4907
-11.9123
-10.4794
-9.09666
-7.15912
-5.59438
-4.0779
-2.73463
-1.67504
-0.842221
0.590905
0.788092
1.05464
1.27103
1.19462
0.824797
-0.0663652
-1.52461
-3.50663
-5.75877
-7.908
-9.84288
-10.5671
-11.0147
-11.3385
-9.98856
-8.52739
-6.654
-5.18407
-3.78509
-2.55176
-1.58655
-0.834467
0.591864
0.789566
1.05613
1.27042
1.19035
0.815363
-0.079037
-1.5341
-3.49963
-5.71625
-7.80536
-9.65456
-10.28
-10.5486
-10.7742
-9.50251
-8.01206
-6.21318
-4.83195
-3.54153
-2.41602
-1.54091
-0.859425
0.59268
0.79091
1.05733
1.26939
1.18563
0.805696
-0.0911996
-1.54154
-3.48813
-5.66619
-7.69254
-9.45507
-9.98838
-10.0953
-10.2243
-9.02914
-7.53381
-5.82723
-4.53461
-3.33885
-2.31477
-1.51779
-0.895446
0.593307
0.792096
1.0582
1.26793
1.18049
0.795816
-0.102798
-1.54684
-3.47196
-5.60843
-7.56978
-9.24523
-9.69367
-9.65684
-9.69272
-8.5731
-7.08449
-5.49521
-4.28558
-3.17396
-2.24132
-1.51373
-0.941297
0.593762
0.793129
1.05874
1.26602
1.17487
0.785696
-0.113838
-1.54996
-3.45111
-5.54305
-7.43746
-9.0258
-9.39592
-9.2354
-9.19492
-8.13861
-6.67521
-5.21319
-4.07823
-3.04317
-2.19417
-1.52941
-1.00246
0.594085
0.794029
1.05894
1.26364
1.16874
0.775323
-0.124263
-1.55072
-3.42522
-5.4696
-7.29538
-8.79727
-9.09743
-8.82816
-8.72279
-7.70074
-6.30998
-4.96775
-3.9055
-2.95156
-2.17444
-1.56528
-1.08103
0.594215
0.794787
1.05882
1.26074
1.16192
0.764173
-0.135116
-1.55083
-3.39666
-5.39093
-7.14691
-8.56176
-8.79392
-8.44285
-8.35546
-7.31833
-6.01647
-4.77929
-3.77595
-2.89123
-2.16278
-1.60015
-1.15264
0.595679
0.796288
1.05888
1.25716
1.15337
0.750378
-0.148522
-1.55131
-3.36343
-5.30051
-6.98019
-8.30724
-8.50271
-8.04455
-7.8111
-6.75198
-5.61974
-4.54224
-3.65517
-2.87773
-2.2082
-1.6893
-1.27039
0.596052
0.796409
1.057
1.2505
1.14116
0.73334
-0.162373
-1.54603
-3.31473
-5.18399
-6.77895
-8.01838
-8.22513
-7.79021
-7.58654
-6.6105
-5.564
-4.54371
-3.71851
-2.99781
-2.36561
-1.86554
-1.4655
0.594911
0.794674
1.05184
1.23939
1.1234
0.710977
-0.178596
-1.53645
-3.25176
-5.04288
-6.54553
-7.69609
-7.93303
-7.55105
-7.38411
-6.51554
-5.54065
-4.57785
-3.80209
-3.12514
-2.53642
-2.05907
-1.67417
0.592193
0.79091
1.04314
1.22355
1.09979
0.682796
-0.19824
-1.52473
-3.17854
-4.8836
-6.28926
-7.34735
-7.60133
-7.23026
-7.03069
-6.24788
-5.38166
-4.5251
-3.81653
-3.20095
-2.65986
-2.22228
-1.85802
0.588842
0.78588
1.03198
1.20429
1.07234
0.651818
-0.216859
-1.50491
-3.08796
-4.69892
-6.00428
-6.96596
-7.21648
-6.82539
-6.56618
-5.86073
-5.12235
-4.39835
-3.76897
-3.21893
-2.73663
-2.34282
-2.00559
0.585439
0.780099
1.01912
1.18257
1.04271
0.620925
-0.229626
-1.46964
-2.96999
-4.47643
-5.67656
-6.53771
-6.77268
-6.36702
-6.06613
-5.4402
-4.81412
-4.21793
-3.66544
-3.18289
-2.76772
-2.4166
-2.1153
0.581585
0.773305
1.0043
1.15831
1.01125
0.591352
-0.23389
-1.41444
-2.81798
-4.2069
-5.29393
-6.04985
-6.26555
-5.86835
-5.55157
-5.00028
-4.46082
-3.97171
-3.50162
-3.09716
-2.74245
-2.44327
-2.18798
0.576779
0.764979
0.98686
1.13078
0.977472
0.563106
-0.228834
-1.3376
-2.62938
-3.88641
-4.85057
-5.49677
-5.69208
-5.32409
-5.00823
-4.523
-4.05528
-3.66233
-3.28139
-2.95059
-2.65916
-2.41814
-2.21525
0.570539
0.75459
0.966103
1.0993
0.940842
0.536076
-0.21416
-1.23889
-2.40478
-3.51668
-4.34963
-4.88414
-5.0576
-4.73251
-4.43082
-4.00766
-3.60488
-3.29791
-2.99988
-2.74019
-2.5153
-2.32952
-2.17149
0.562712
0.741782
0.941563
1.06337
0.90119
0.510575
-0.189358
-1.11867
-2.14711
-3.10474
-3.80323
-4.2294
-4.3802
-4.10691
-3.83272
-3.47263
-3.12229
-2.88822
-2.66509
-2.47007
-2.302
-2.16291
-2.042
0.553051
0.726183
0.912843
1.02285
0.858855
0.487483
-0.153713
-0.978157
-1.86212
-2.66306
-3.2313
-3.55882
-3.68797
-3.4712
-3.23446
-2.93843
-2.63271
-2.45343
-2.2881
-2.14578
-2.02398
-1.92043
-1.8312
0.541475
0.707521
0.879752
0.977784
0.814532
0.467955
-0.106811
-0.820081
-1.55861
-2.20852
-2.65823
-2.90193
-3.0115
-2.85152
-2.65848
-2.42667
-2.15739
-2.01075
-1.88889
-1.78576
-1.697
-1.62012
-1.55644
0.527708
0.685428
0.842113
0.92854
0.769217
0.453088
-0.0492326
-0.649422
-1.24855
-1.76077
-2.1089
-2.28598
-2.37757
-2.26904
-2.11891
-1.94981
-1.72292
-1.58911
-1.49263
-1.41559
-1.35084
-1.29431
-1.24949
0.51163
0.659678
0.799986
0.875636
0.723967
0.443457
0.0168892
-0.473574
-0.946024
-1.33949
-1.60526
-1.73231
-1.80711
-1.74141
-1.62963
-1.51642
-1.34263
-1.21627
-1.13191
-1.06688
-1.01676
-0.974924
-0.942977
0.492926
0.629935
0.753485
0.819836
0.679729
0.438691
0.0875269
-0.301936
-0.665476
-0.961927
-1.16378
-1.25552
-1.31485
-1.28238
-1.20294
-1.1323
-1.01696
-0.908666
-0.835627
-0.776768
-0.730677
-0.696491
-0.672964
0.471494
0.596142
0.703016
0.76194
0.636996
0.437158
0.156975
-0.144633
-0.419605
-0.640617
-0.794671
-0.86328
-0.90935
-0.901131
-0.849527
-0.807531
-0.744449
-0.66734
-0.609535
-0.56272
-0.520383
-0.485948
-0.464046
0.447037
0.558162
0.649041
0.702751
0.5956
0.435952
0.218618
-0.0108011
-0.217393
-0.382227
-0.501381
-0.556163
-0.592093
-0.599955
-0.57274
-0.549386
-0.523432
-0.483085
-0.444177
-0.412516
-0.382336
-0.352634
-0.329697
0.419611
0.516249
0.592285
0.642789
0.554542
0.431307
0.266231
0.0930379
-0.0628818
-0.187187
-0.280812
-0.327705
-0.356532
-0.372795
-0.365045
-0.354703
-0.348847
-0.338918
-0.322013
-0.304936
-0.288406
-0.269988
-0.251851
0.389075
0.470625
0.53339
0.582253
0.512183
0.419435
0.295265
0.164113
0.044856
-0.0505597
-0.124961
-0.166789
-0.191082
-0.209756
-0.215065
-0.214967
-0.218032
-0.224977
-0.228143
-0.225685
-0.220757
-0.21384
-0.204834
0.355749
0.421944
0.473079
0.520916
0.466649
0.397484
0.303844
0.203391
0.110664
0.0359228
-0.0236138
-0.0613597
-0.0832997
-0.101345
-0.113586
-0.121412
-0.129287
-0.141588
-0.155963
-0.166062
-0.170936
-0.172516
-0.171758
0.319815
0.37082
0.411845
0.458365
0.416523
0.364333
0.292858
0.214862
0.141726
0.0821212
0.0341971
0.000529996
-0.0203274
-0.0369172
-0.051456
-0.0639546
-0.0754582
-0.0885548
-0.105095
-0.121692
-0.134328
-0.142551
-0.147521
0.281884
0.318199
0.350194
0.394315
0.361357
0.32081
0.26543
0.204276
0.146195
0.0981616
0.0594763
0.0302205
0.0103574
-0.00492552
-0.0191282
-0.0330216
-0.0465597
-0.059991
-0.0748689
-0.091371
-0.106996
-0.119551
-0.128594
0.24254
0.264971
0.288613
0.328967
0.301981
0.269242
0.225895
0.177775
0.131743
0.0929558
0.061677
0.0368715
0.0184396
0.00409033
-0.0090188
-0.0223698
-0.0361366
-0.0498276
-0.0633854
-0.0774136
-0.0916378
-0.10479
-0.115799
0.202601
0.212276
0.22785
0.263319
0.240222
0.212805
0.17865
0.140849
0.104514
0.0732834
0.0478369
0.0270655
0.0104344
-0.00309684
-0.0152254
-0.0273726
-0.0401103
-0.053208
-0.0660178
-0.0782739
-0.0900461
-0.101149
-0.111366
0.163007
0.161261
0.169195
0.199028
0.17867
0.154874
0.127766
0.0980756
0.0694282
0.0442893
0.0233964
0.00594928
-0.00877545
-0.0213983
-0.03275
-0.0437699
-0.0550839
-0.0668359
-0.0786095
-0.0897985
-0.100031
-0.109144
-0.117405
0.124649
0.113514
0.114406
0.138614
0.120379
0.0991706
0.0773531
0.054058
0.0314182
0.0112126
-0.00605037
-0.0207759
-0.0336833
-0.0452228
-0.0558461
-0.0659859
-0.0760952
-0.0864066
-0.0968707
-0.107061
-0.116503
-0.124747
-0.131806
0.0888579
0.0708022
0.0659636
0.0851578
0.0690876
0.0498852
0.0321368
0.0139507
-0.00382803
-0.0199534
-0.0340669
-0.0463761
-0.0574185
-0.0675699
-0.0771167
-0.0862303
-0.0951233
-0.103953
-0.112812
-0.121553
-0.129888
-0.1374
-0.143822
0.0568764
0.0354352
0.0269979
0.0426916
0.0295691
0.0124963
-0.00188059
-0.0157446
-0.0294263
-0.0421079
-0.053506
-0.0637005
-0.0730538
-0.0818307
-0.0902422
-0.098346
-0.106208
-0.113861
-0.121381
-0.12875
-0.135877
-0.142528
-0.14844
0.0303161
0.00968383
0.000462241
0.0145747
0.0054823
-0.00914617
-0.020807
-0.031128
-0.0413655
-0.051094
-0.0600385
-0.0681428
-0.07565
-0.0827089
-0.0894984
-0.096035
-0.102356
-0.108419
-0.114263
-0.119879
-0.12528
-0.130384
-0.135072
0.0100923
-0.00462962
-0.0101625
0.00679121
0.00550252
-0.00350232
-0.0104783
-0.0160852
-0.022427
-0.0296067
-0.037357
-0.0454091
-0.0538151
-0.062512
-0.071529
-0.0807393
-0.0900748
-0.099361
-0.108515
-0.117422
-0.126067
-0.134382
-0.142361
0.000335122
-0.0110929
-0.0154132
-0.00324272
-0.00111041
-0.00634595
-0.00991318
-0.010213
-0.00934595
-0.00806776
-0.00652466
-0.00449274
-0.00214865
0.000495964
0.00323281
0.00607469
0.00891881
0.0118265
0.0147187
0.0175927
0.0203367
0.0229475
0.0254171
0.645459
0.558123
0.644224
0.773837
0.946324
1.1861
1.52409
1.9871
2.60767
3.40809
4.40257
5.59871
7.00642
8.63482
10.4881
12.5467
14.7636
17.0622
19.3502
21.5307
23.5304
25.2831
26.8009
0.666033
0.622087
0.6903
0.826186
1.00415
1.24665
1.58473
2.04551
2.66023
3.45434
4.44585
5.64563
7.06222
8.69961
10.553
12.5954
14.7743
17.0124
19.2192
21.3039
23.1979
24.8469
26.2609
0.68963
0.688539
0.746042
0.882382
1.06514
1.30877
1.64266
2.09399
2.6926
3.46606
4.43608
5.61722
7.01824
8.63975
10.4702
12.4763
14.6011
16.7669
18.8853
20.8714
22.6613
24.2104
25.5264
0.7175
0.753292
0.809345
0.942231
1.1275
1.37061
1.6968
2.13242
2.70582
3.44538
4.37572
5.51496
6.87341
8.45057
10.231
12.1775
14.2305
16.3122
18.3371
20.2252
21.9164
23.3742
24.6038
0.751459
0.811893
0.874813
1.00365
1.1885
1.42888
1.74403
2.15811
2.69771
3.39091
4.26422
5.33883
6.62764
8.13107
9.83307
11.6953
13.658
15.645
17.5738
19.3684
20.9713
22.3507
23.5081
0.791518
0.859602
0.932813
1.0592
1.24051
1.47452
1.77416
2.1601
2.65664
3.29085
4.09002
5.07783
6.27007
7.66998
9.26362
11.0149
12.8671
14.7477
16.5782
18.2864
19.8167
21.1384
22.2471
0.830959
0.890245
0.970879
1.09699
1.27307
1.49684
1.77587
2.12654
2.57039
3.13291
3.8415
4.72185
5.79302
7.06218
8.51947
10.1336
11.8534
13.6124
15.3382
16.9634
18.4346
19.7209
20.8143
0.85501
0.903265
0.987653
1.11753
1.29192
1.50607
1.76282
2.07399
2.45803
2.93879
3.544
4.3019
5.23581
6.35781
7.6634
9.12707
10.7036
12.3334
13.9509
15.493
16.908
18.1631
19.2463
0.434065
0.112339
0.355153
0.371302
0.518577
0.71385
0.95055
1.362
1.90986
2.57176
3.34881
4.13592
4.9676
5.8326
6.77574
7.78469
8.82303
9.82225
10.7207
11.4742
12.0632
12.5104
12.8152
0.440878
0.12591
0.362898
0.381346
0.53031
0.724637
0.965792
1.37897
1.93187
2.60709
3.40488
4.2387
5.13959
6.1089
7.18824
8.36899
9.61296
10.8479
12.0044
13.0235
13.8745
14.5634
15.082
0.448781
0.142717
0.374284
0.39449
0.54619
0.739336
0.984276
1.39684
1.95163
2.63566
3.44852
4.3214
5.28252
6.34442
7.54654
8.88356
10.3165
11.7708
13.1714
14.4464
15.5556
16.4858
17.2262
0.457538
0.162197
0.39024
0.412059
0.568031
0.761302
1.01098
1.42279
1.97861
2.66888
3.49289
4.39786
5.41031
6.5524
7.86272
9.33855
10.9407
12.593
14.216
15.7279
17.0795
18.2398
19.1977
0.467391
0.183732
0.411279
0.435629
0.598012
0.793939
1.05071
1.46327
2.02089
2.71669
3.54973
4.48129
5.53718
6.74753
8.15123
9.74751
11.4972
13.323
15.1421
16.8642
18.4337
19.8027
20.9626
0.478442
0.206414
0.436315
0.464721
0.635183
0.836667
1.1033
1.51898
2.08029
2.78222
3.62376
4.57792
5.67059
6.93816
8.42073
10.1189
11.9939
13.9672
15.9531
17.8548
19.6113
21.1607
22.4977
0.490871
0.228862
0.461692
0.495045
0.673145
0.881603
1.15978
1.58078
2.14829
2.85879
3.71123
4.68773
5.81432
7.13147
8.68062
10.4634
12.4414
14.5355
16.6574
18.7051
20.6137
22.3097
23.7923
0.504634
0.250351
0.484624
0.523713
0.707604
0.923651
1.21457
1.64329
2.22023
2.94305
3.81069
4.81164
5.97162
7.33293
8.93793
10.7891
12.8487
15.0373
17.2644
19.4242
21.4487
23.2557
24.8495
0.51966
0.271992
0.504612
0.550697
0.738052
0.961851
1.26592
1.70412
2.29285
3.03116
3.91804
4.94625
6.14054
7.54284
9.1955
11.1014
13.2238
15.4831
17.787
20.0269
22.1324
24.0153
25.6855
0.535845
0.29562
0.521566
0.575846