/*--------------------------------*- C++ -*----------------------------------*\
  =========                 |
  \\      /  F ield         | OpenFOAM: The Open Source CFD Toolbox
   \\    /   O peration     | Website:  https://openfoam.org
    \\  /    A nd           | Version:  7
     \\/     M anipulation  |
\*---------------------------------------------------------------------------*/
FoamFile
{
    version     2.0;
    format      ascii;
    class       surfaceScalarField;
    location    "50";
    object      phi;
}
// * * * * * * * * * * * * * * * * * * * * * * * * * * * * * * * * * * * * * //

dimensions      [0 3 -1 0 0 0 0];

internalField   nonuniform List<scalar> 
25449
(
69.1129
43.3367
-18.6137
51.2264
31.9578
-14.0713
38.1601
23.7113
-10.6451
28.5416
17.6734
-8.05494
21.4176
13.2211
-6.09706
16.1151
9.92093
-4.61838
12.1528
7.46457
-3.50232
9.18295
5.63004
-2.66019
6.95163
4.25599
-2.02468
5.2722
3.22419
-1.54476
4.00657
2.44753
-1.18189
3.05203
1.86159
-0.907054
2.33185
1.41859
-0.698418
1.7885
1.08294
-0.539587
1.37866
0.828073
-0.418241
1.0697
0.634075
-0.325118
0.836958
0.486022
-0.253278
0.661765
0.372728
-0.197535
0.529997
0.285823
-0.154055
0.430954
0.219046
-0.120003
0.35654
0.167692
-0.0932771
0.300628
0.128213
-0.0723007
0.0978721
-0.0558765
0.258633
54.56
62.3991
40.6404
45.8775
30.3969
33.9548
22.8129
25.2574
17.17
18.864
12.9545
14.1364
9.7954
10.6237
7.42188
8.00356
5.63506
6.04281
4.28796
4.5713
3.27138
3.46411
2.50386
2.62911
1.92435
1.9981
1.48691
1.52038
1.15689
1.1581
0.908085
0.882875
0.720683
0.673425
0.579661
0.51375
0.473639
0.391846
0.39399
0.298696
0.334183
0.227499
0.289275
0.173121
0.131579
0.255569
42.076
76.6168
31.5547
56.3988
23.731
41.7785
17.8916
31.0968
13.5191
23.2365
10.2364
17.4191
7.76655
13.0935
5.90499
9.86512
4.4999
7.4479
3.43828
5.63291
2.63576
4.26663
2.02906
3.23581
1.57056
2.4566
1.22427
1.86667
0.96295
1.41941
0.765929
1.0799
0.617532
0.821821
0.505872
0.625409
0.421936
0.475781
0.358888
0.361744
0.311553
0.274833
0.276014
0.208661
0.158252
0.24934
32.0857
86.9173
24.3011
64.1835
18.4193
47.6603
13.9757
35.5405
10.617
26.5952
8.07717
19.9589
6.15542
15.0153
4.70042
11.3201
3.59817
8.55015
2.76289
6.4682
2.12997
4.89955
1.65064
3.71514
1.28796
2.81929
1.01383
2.1408
0.806867
1.62638
0.650781
1.23598
0.533186
0.939416
0.444679
0.713917
0.378124
0.542336
0.328113
0.411755
0.290548
0.312398
0.26233
0.236878
0.179445
0.241137
24.391
94.1448
18.7383
69.8363
14.3597
52.0388
10.9907
38.9095
8.40894
29.1769
6.43628
21.9316
4.9318
16.5197
3.78563
12.4663
2.91299
9.42279
2.24905
7.13214
1.74437
5.40423
1.36125
4.09825
1.07088
3.10966
0.851164
2.36051
0.685148
1.79239
0.55986
1.36127
0.465403
1.03387
0.394253
0.785066
0.340701
0.595888
0.300417
0.452039
0.270123
0.34269
0.247341
0.25966
0.19658
0.230206
18.599
99.0004
14.5764
73.8589
11.3371
55.2781
8.7764
41.4702
6.77525
31.1781
5.22431
23.4825
4.02883
17.7152
3.11059
13.3845
2.40697
10.1264
1.86886
7.67025
1.45817
5.81493
1.14544
4.41098
0.907888
3.34721
0.727852
2.54055
0.591658
1.92859
0.488762
1.46417
0.411092
1.11154
0.352501
0.843657
0.308327
0.640063
0.275035
0.485331
0.249949
0.367776
0.231046
0.278563
0.210828
0.216799
14.3069
102.041
11.5168
76.6491
9.12922
57.6656
7.16669
43.4327
5.59155
32.7532
4.34798
24.7261
3.37647
18.6867
2.62276
14.1383
2.04072
10.7085
1.59286
8.11811
1.24938
6.15841
0.986854
4.67351
0.786872
3.54719
0.634989
2.69243
0.519898
2.04368
0.432807
1.55126
0.36695
1.1774
0.317167
0.89344
0.27954
0.677688
0.251106
0.513765
0.229619
0.389263
0.213384
0.294798
0.223099
0.201112
11.1582
103.698
9.29473
78.5127
7.53883
59.4215
6.01435
44.9572
4.7478
34.0198
3.72492
25.749
2.91302
19.4986
2.27582
14.7755
1.7794
11.2049
1.39479
8.50272
1.09823
6.45497
0.870627
4.90112
0.696721
3.7211
0.564342
2.82482
0.463842
2.14418
0.387646
1.62746
0.329895
1.23515
0.286112
0.937223
0.252912
0.710889
0.227729
0.538948
0.20863
0.408362
0.194145
0.309284
0.23408
0.183165
8.56332
106.719
6.37172
80.7043
4.77231
61.021
3.59684
46.1327
2.72648
34.8901
2.07906
26.3964
1.59482
19.9829
1.23084
15.1394
0.956019
11.4797
0.747825
8.71091
0.589859
6.61294
0.470043
5.02093
0.379313
3.81183
0.310744
2.89339
0.258997
2.19593
0.219947
1.6665
0.190446
1.26465
0.168117
0.959551
0.151182
0.727823
0.138318
0.551812
0.128535
0.418145
0.121096
0.316723
0.239747
0.115429
6.355
108.97
4.72745
82.3319
3.54375
62.2047
2.67603
47.0004
2.03478
35.5314
1.55858
26.8726
1.20269
20.3388
0.935151
15.407
0.732915
11.6819
0.579433
8.8644
0.462731
6.72965
0.374047
5.10963
0.306797
3.87909
0.255928
2.94426
0.217508
2.23435
0.188478
1.69554
0.166492
1.28664
0.149779
0.976266
0.137029
0.740574
0.127273
0.561569
0.11979
0.425628
0.114052
0.322461
0.244156
0.109644
4.67137
110.626
3.4771
83.5262
2.61114
63.0706
1.97765
47.6339
1.51028
35.9987
1.16373
27.2191
0.904825
20.5977
0.710067
15.6017
0.562551
11.8295
0.450277
8.97667
0.364633
6.81529
0.299364
5.17489
0.249759
3.9287
0.212177
2.98184
0.183749
2.26278
0.162216
1.71707
0.145837
1.30302
0.133303
0.988798
0.123654
0.750222
0.11619
0.569033
0.110396
0.431422
0.105901
0.326955
0.247648
0.102409
3.39602
111.824
2.53295
84.3893
1.90831
63.6953
1.4518
48.0904
1.11536
36.3352
0.86612
27.4684
0.679865
20.7839
0.539532
15.7421
0.432885
11.9361
0.351353
9.0582
0.288849
6.8778
0.240998
5.22275
0.204496
3.96521
0.176761
3.00958
0.155723
2.28382
0.139722
1.73308
0.127469
1.31527
0.117998
0.998272
0.110609
0.757612
0.104806
0.574837
0.100228
0.436
0.0966215
0.330561
0.250492
0.0937781
2.43667
112.671
1.82535
85.0006
1.38257
64.1381
1.05861
48.4143
0.819767
36.574
0.642793
27.6453
0.510341
20.9164
0.410232
15.8422
0.333739
12.0126
0.274854
9.11708
0.229365
6.92329
0.194294
5.25782
0.167383
3.99211
0.146839
3.03012
0.131186
2.29947
0.119208
1.74505
0.10995
1.32453
0.102693
1.00553
0.0969348
0.76337
0.0923244
0.579447
0.088615
0.43971
0.0856396
0.333536
0.252876
0.0832549
1.72442
113.251
1.30256
85.4225
0.995135
64.4455
0.769037
48.6404
0.601795
36.7413
0.477554
27.7696
0.384222
21.0097
0.313273
15.9131
0.258586
12.0673
0.216035
9.15964
0.182782
6.95654
0.156869
5.28374
0.136803
4.01219
0.121373
3.04556
0.109538
2.31131
0.100405
1.75419
0.0932586
1.33168
0.0875606
1.01123
0.0829436
0.767988
0.0791641
0.583227
0.0760563
0.442818
0.0735147
0.336078
0.254948
0.0714435
1.1929
113.626
0.914672
85.7007
0.708473
64.6517
0.554838
48.7941
0.440181
36.8559
0.354412
27.8553
0.289491
21.0746
0.239647
15.963
0.200697
12.1062
0.169898
9.19043
0.145411
6.98103
0.126024
5.30312
0.110806
4.0274
0.0989768
3.05739
0.0898191
2.32047
0.0826775
1.76133
0.0770064
1.33735
0.0723955
1.01584
0.0685738
0.771809
0.0653718
0.586429
0.0626813
0.445508
0.0604403
0.338319
0.256802
0.058585
0.80791
113.846
0.63605
85.8726
0.503413
64.7843
0.401683
48.8958
0.324227
36.9334
0.26541
27.9142
0.220248
21.1198
0.184997
15.9982
0.15687
12.1344
0.134106
9.2132
0.115566
6.99957
0.100568
5.31812
0.0885784
4.0394
0.0791267
3.06684
0.0717294
2.32787
0.065898
1.76717
0.0612031
1.34205
0.0573169
1.01973
0.0540311
0.775096
0.0512232
0.589237
0.0488227
0.447908
0.0467944
0.340346
0.258501
0.0450962
0.529788
113.949
0.437008
85.9654
0.357765
64.8636
0.29299
48.9606
0.241566
36.9848
0.20135
27.9544
0.169688
21.1514
0.144326
16.0236
0.123477
12.1552
0.106066
9.2306
0.0914416
7.01419
0.0792871
5.33027
0.0693516
4.04933
0.0613902
3.0748
0.0550895
2.33417
0.05008
1.77217
0.0460084
1.34612
0.0425977
1.02314
0.0396756
0.778018
0.0371471
0.591766
0.0349623
0.450093
0.0331027
0.342206
0.260068
0.0315355
0.33273
113.962
0.298258
85.9999
0.257126
64.9047
0.217989
48.9997
0.184159
37.0186
0.156248
27.9823
0.13337
21.1743
0.114358
16.0426
0.0981216
12.1715
0.0840505
9.24467
0.0718142
7.02643
0.0613419
5.34075
0.0525775
4.0581
0.0454393
3.08194
0.0397396
2.33987
0.035194
1.77672
0.0314962
1.34982
0.0283943
1.02624
0.0257309
0.780683
0.0234216
0.594076
0.0214241
0.45209
0.0197254
0.343904
0.261499
0.0182943
0.197241
113.907
0.205274
85.9918
0.190681
64.9193
0.168628
49.0217
0.146028
37.0412
0.12568
28.0026
0.108041
21.192
0.0927195
16.0579
0.0790939
12.1851
0.0668481
9.25691
0.0558486
7.03742
0.04618
5.35041
0.0379166
4.06635
0.0310952
3.08876
0.0256237
2.34534
0.0212796
1.78107
0.0177817
1.35332
0.0148844
1.02914
0.0124267
0.78314
0.0103221
0.596181
0.00852065
0.453891
0.00700889
0.345416
0.262764
0.00574382
0.107552
113.799
0.146297
85.9531
0.149647
64.9159
0.138335
49.033
0.122256
37.0573
0.105972
28.0189
0.0909603
21.207
0.0773758
16.0715
0.0648919
12.1976
0.0533599
9.26845
0.0427502
7.04804
0.0332355
5.35993
0.0249737
4.07462
0.01809
3.09565
0.0125696
2.35087
0.00823935
1.7854
0.00482892
1.35673
0.00208357
1.03188
-0.00018121
0.785406
-0.00206853
0.598068
-0.00364734
0.45547
-0.00494131
0.346709
0.263831
-0.00600881
0.0514388
113.652
0.112194
85.8923
0.127183
64.9009
0.121975
49.0383
0.108988
37.0703
0.0942277
28.0337
0.0799491
21.2212
0.0666826
16.0848
0.054269
12.21
0.0426358
9.28007
0.031792
7.05887
0.0219508
5.36976
0.0133207
4.08324
0.00609416
3.10287
0.000325468
2.35663
-0.00411675
1.78984
-0.00750501
1.36012
-0.0101189
1.0345
-0.0121799
0.787467
-0.0138175
0.599705
-0.0151274
0.45678
-0.0161574
0.347738
0.264652
-0.0169779
0.020271
113.473
0.0965531
85.816
0.118478
64.879
0.115903
49.0408
0.103444
37.0827
0.0883097
28.0488
0.0733649
21.2362
0.0593879
16.0987
0.0462845
12.2231
0.0339798
9.29238
0.0224639
7.07039
0.0119502
5.38028
0.00267591
4.09252
-0.00510922
3.11066
-0.0112844
2.36281
-0.0159406
1.7945
-0.0193515
1.36353
-0.0218326
1.03698
-0.0236553
0.78929
-0.0249934
0.601044
-0.0259785
0.457763
-0.0266933
0.348454
0.26518
-0.0272222
0.00776082
113.269
0.0947196
85.7291
0.120124
64.8536
0.117668
49.0433
0.103883
37.0965
0.0869882
28.0657
0.0703092
21.2529
0.0547818
16.1143
0.0403287
12.2375
0.0268464
9.30586
0.0142801
7.08295
0.0028149
5.39174
-0.00730854
4.10264
-0.0158079
3.11915
-0.0225021
2.3695
-0.0274387
1.79943
-0.0308946
1.36698
-0.0332312
1.03931
-0.0347809
0.790839
-0.0357784
0.60204
-0.0363946
0.458379
-0.0367625
0.348821
0.265382
-0.0369648
-0.362326
113.156
-0.277379
85.6441
-0.214954
64.7912
-0.168052
48.9964
-0.132608
37.0611
-0.105606
28.0387
-0.0850554
21.2323
-0.0697064
16.0989
-0.0587691
12.2266
-0.0516356
9.29872
-0.0477448
7.07906
-0.0464393
5.39043
-0.0469781
4.10318
-0.0485184
3.12069
-0.0502335
2.37122
-0.0515338
1.80073
-0.0521889
1.36764
-0.0522455
1.03937
-0.0518749
0.790469
-0.0512439
0.601409
-0.0504857
0.45762
-0.0497196
0.348055
0.264651
-0.0489881
-0.353477
113.05
-0.273709
85.5644
-0.215066
64.7325
-0.170935
48.9523
-0.137529
37.0277
-0.112018
28.0132
-0.0925417
21.2128
-0.0779558
16.0843
-0.0675582
12.2162
-0.0608208
9.29198
-0.057243
7.07548
-0.0562171
5.3894
-0.0570219
4.10397
-0.0588058
3.12247
-0.0606793
2.37308
-0.0619781
1.80203
-0.0624239
1.36808
-0.062084
1.03903
-0.0611961
0.78958
-0.0600044
0.600216
-0.0586984
0.456314
-0.057442
0.346798
0.263496
-0.0562868
-0.344654
112.95
-0.269698
85.4894
-0.214557
64.6774
-0.172989
48.9107
-0.141465
36.9961
-0.117328
27.9891
-0.0988433
21.1944
-0.0849613
16.0704
-0.0750611
12.2063
-0.0686866
9.2856
-0.065392
7.07218
-0.0646188
5.38863
-0.0656672
4.10502
-0.0676872
3.12449
-0.0697333
2.37513
-0.0710693
1.80337
-0.0713621
1.36837
-0.0706899
1.03836
-0.0693487
0.788239
-0.067653
0.598521
-0.0658755
0.454536
-0.064233
0.345155
0.262041
-0.0627775
-0.335919
112.857
-0.265459
85.4189
-0.213584
64.6255
-0.174404
48.8715
-0.144631
36.9664
-0.121772
27.9662
-0.104207
21.1768
-0.0909738
16.0572
-0.0815274
12.1969
-0.0754802
9.27955
-0.0724376
7.06913
-0.0718912
5.38807
-0.0731662
4.10629
-0.0754264
3.12674
-0.077678
2.37738
-0.0791152
1.8048
-0.0793371
1.36859
-0.0784119
1.03743
-0.0766864
0.786513
-0.0745822
0.596414
-0.0724779
0.452432
-0.0705948
0.343271
0.260373
-0.0689264
-0.327307
112.77
-0.26107
85.3527
-0.212256
64.5767
-0.175313
48.8346
-0.14718
36.9382
-0.125516
27.9445
-0.108806
21.1601
-0.0961735
16.0446
-0.0871415
12.1878
-0.0813879
9.2738
-0.0785672
7.06631
-0.078223
5.38773
-0.0797098
4.10778
-0.082219
3.12925
-0.0847203
2.37988
-0.0863406
1.80642
-0.0865951
1.36885
-0.085526
1.03636
-0.0835471
0.784532
-0.0811944
0.594063
-0.078884
0.450121
-0.076766
0.341152
0.258448
-0.074842
-0.318846
112.688
-0.256587
85.2904
-0.210653
64.5308
-0.175814
48.7997
-0.149222
36.9117
-0.12868
27.924
-0.112772
21.1442
-0.100696
16.0325
-0.0920429
12.1792
-0.0865522
9.2683
-0.0839254
7.06368
-0.0837599
5.38756
-0.0854441
4.10945
-0.0882136
3.13202
-0.0910157
2.38267
-0.0929172
1.80831
-0.0933409
1.36927
-0.0922909
1.0353
-0.0902139
0.782454
-0.0876652
0.591511
-0.0850377
0.447493
-0.0825751
0.338688
0.25629
-0.0804176
-0.310551
112.612
-0.252053
85.232
-0.208836
64.4876
-0.175981
48.7669
-0.150843
36.8865
-0.131357
27.9045
-0.116201
21.129
-0.104645
16.0209
-0.0963384
12.1709
-0.0910824
9.26304
-0.088623
7.06122
-0.0886135
5.38754
-0.0904806
4.11132
-0.093522
3.13506
-0.0966811
2.38583
-0.0989795
1.81061
-0.0997453
1.37003
-0.0988868
1.03444
-0.096752
0.780317
-0.0938647
0.588626
-0.0908201
0.444448
-0.088124
0.335991
0.25406
-0.0858953
-0.302435
112.541
-0.247498
85.177
-0.206851
64.4469
-0.175874
48.7359
-0.15211
36.8628
-0.133622
27.886
-0.119174
21.1146
-0.108103
16.0099
-0.100114
12.1629
-0.0950671
9.25799
-0.0927502
7.05889
-0.0928743
5.38766
-0.094909
4.11334
-0.0982322
3.13837
-0.101807
2.3894
-0.104633
1.81343
-0.105923
1.37132
-0.105382
1.0339
-0.10319
0.778124
-0.100076
0.585509
-0.0969916
0.441364
-0.0943833
0.333381
0.251804
-0.0921284
-0.294506
112.474
-0.242949
85.1255
-0.204738
64.4087
-0.17554
48.7067
-0.153078
36.8403
-0.135536
27.8685
-0.121756
21.1008
-0.111138
15.9992
-0.103441
12.1552
-0.0985786
9.25312
-0.0963804
7.05669
-0.0966158
5.38789
-0.0988006
4.11553
-0.102412
3.14198
-0.10646
2.39345
-0.109945
1.81692
-0.111933
1.37331
-0.111893
1.03386
-0.11002
0.776249
-0.107398
0.582888
-0.104882
0.438848
-0.102446
0.330944
0.249397
-0.100041
-0.286768
112.412
-0.238425
85.0771
-0.202528
64.3728
-0.175019
48.6792
-0.153793
36.8191
-0.137147
27.8518
-0.124
21.0876
-0.113807
15.989
-0.106378
12.1478
-0.101678
9.24842
-0.0995754
7.05458
-0.0998992
5.38821
-0.102214
4.11783
-0.106114
3.14587
-0.110684
2.39801
-0.11495
1.82118
-0.117852
1.37621
-0.118757
1.03476
-0.118002
0.775491
-0.116514
0.5814
-0.114445
0.436778
-0.111728
0.328225
0.246544
-0.108877
-0.279227
112.354
-0.233943
85.0318
-0.200246
64.3391
-0.174344
48.6533
-0.154295
36.799
-0.138501
27.836
-0.125953
21.0751
-0.11616
15.9793
-0.108975
12.1406
-0.104417
9.24386
-0.102389
7.05255
-0.102777
5.3886
-0.105198
4.12025
-0.109378
3.15005
-0.114502
2.40313
-0.119672
1.82634
-0.123804
1.38034
-0.126267
1.03722
-0.127143
0.776363
-0.126386
0.580644
-0.123815
0.434206
-0.120297
0.324706
0.243027
-0.116783
-0.271884
112.3
-0.229517
84.9894
-0.197917
64.3075
-0.173546
48.6289
-0.154616
36.7801
-0.139635
27.8211
-0.127655
21.0631
-0.118238
15.9698
-0.111279
12.1336
-0.106843
9.23942
-0.104867
7.05057
-0.105296
5.38902
-0.107793
4.12274
-0.112232
3.15448
-0.117927
2.40882
-0.124128
1.83254
-0.129835
1.38604
-0.134252
1.04163
-0.136526
0.778635
-0.135724
0.579842
-0.132583
0.431063
-0.129027
0.321148
0.239707
-0.125711
-0.26474
112.25
-0.225159
84.9499
-0.195559
64.2779
-0.172648
48.606
-0.154788
36.7622
-0.140581
27.8068
-0.129143
21.0517
-0.120081
15.9608
-0.113328
12.1269
-0.108996
9.23508
-0.107051
7.04862
-0.107494
5.38946
-0.110035
4.12528
-0.114699
3.15914
-0.120959
2.41507
-0.128289
1.83987
-0.135789
1.39354
-0.142172
1.04801
-0.145643
0.782102
-0.145709
0.579909
-0.144555
0.429907
-0.143708
0.320301
0.238816
-0.142822
-0.257796
112.204
-0.220879
84.9129
-0.193189
64.2502
-0.171675
48.5845
-0.154836
36.7454
-0.14137
27.7934
-0.130448
21.0408
-0.121721
15.952
-0.115158
12.1203
-0.110913
9.23083
-0.108978
7.04668
-0.10941
5.38988
-0.111956
4.12781
-0.116795
3.16397
-0.123585
2.42185
-0.132063
1.84834
-0.141361
1.40283
-0.14968
1.05632
-0.155366
0.787784
-0.159642
0.584186
-0.164579
0.434843
-0.169245
0.324965
0.241941
-0.172374
-0.251052
112.161
-0.216686
84.8786
-0.190824
64.2243
-0.170646
48.5643
-0.154786
36.7295
-0.142029
27.7806
-0.131601
21.0303
-0.123191
15.9436
-0.116802
12.1139
-0.112627
9.22666
-0.110684
7.04473
-0.111076
5.39027
-0.113583
4.13032
-0.118532
3.16892
-0.125776
2.42909
-0.135306
1.85786
-0.146258
1.41378
-0.156841
1.0669
-0.166884
0.797824
-0.178788
0.59609
-0.191734
0.447789
-0.20185
0.33508
0.248188
-0.208101
-0.244508
112.122
-0.212589
84.8467
-0.188479
64.2002
-0.169581
48.5454
-0.15466
36.7146
-0.142583
27.7685
-0.132628
21.0204
-0.12452
15.9355
-0.11829
12.1077
-0.114171
9.22253
-0.1122
7.04276
-0.112523
5.39059
-0.114944
4.13273
-0.119921
3.17389
-0.127495
2.43666
-0.137866
1.86823
-0.150284
1.42619
-0.163712
1.08032
-0.179801
0.81391
-0.199829
0.616118
-0.218627
0.466586
-0.231122
0.347574
0.25484
-0.237779
-0.238162
112.086
-0.208593
84.8171
-0.186165
64.1778
-0.168499
48.5277
-0.154479
36.7006
-0.143056
27.7571
-0.133555
21.0109
-0.125733
15.9277
-0.11965
12.1016
-0.115572
9.21845
-0.113556
7.04074
-0.113781
5.39081
-0.116065
4.13501
-0.12097
3.17878
-0.1287
2.44438
-0.139615
1.87914
-0.153275
1.43985
-0.169861
1.0969
-0.191852
0.835898
-0.217227
0.641493
-0.237471
0.48683
-0.248586
0.358688
0.259194
-0.252944
-0.232016
112.054
-0.204707
84.7898
-0.183897
64.157
-0.167414
48.5113
-0.154263
36.6874
-0.143471
27.7463
-0.134406
21.0018
-0.126857
15.9202
-0.120908
12.0957
-0.11686
9.2144
-0.114781
7.03865
-0.114878
5.3909
-0.116973
4.1371
-0.12169
3.1835
-0.129364
2.45205
-0.140459
1.89023
-0.155017
1.45441
-0.174344
1.11622
-0.200234
0.861784
-0.226881
0.668143
-0.24476
0.504707
-0.252159
0.366086
0.259969
-0.252938
-0.226066
112.024
-0.200937
84.7647
-0.181686
64.1377
-0.166344
48.4959
-0.15403
36.6751
-0.143847
27.7361
-0.135203
20.9932
-0.127916
15.9129
-0.122091
12.0898
-0.11806
9.21037
-0.115903
7.03649
-0.115843
5.39083
-0.117694
4.13894
-0.122096
3.18789
-0.129471
2.45942
-0.140332
1.90109
-0.155238
1.46931
-0.176101
1.13708
-0.20298
0.88866
-0.227375
0.692538
-0.240823
0.518153
-0.243967
0.369231
0.257383
-0.241385
-0.220314
111.997
-0.197289
84.7416
-0.179542
64.12
-0.165303
48.4817
-0.153799
36.6636
-0.144205
27.7266
-0.135968
20.9849
-0.128932
15.9058
-0.123222
12.0841
-0.119197
9.20634
-0.116947
7.03424
-0.116701
5.39058
-0.118257
4.14049
-0.122211
3.19184
-0.129031
2.46624
-0.139201
1.91126
-0.153678
1.48379
-0.174375
1.15777
-0.199446
0.913728
-0.219474
0.712568
-0.228147
0.526826
-0.227802
0.368885
0.252503
-0.222924
-0.214757
111.973
-0.193768
84.7206
-0.177477
64.1037
-0.164305
48.4685
-0.153586
36.6529
-0.144564
27.7175
-0.136722
20.9771
-0.129927
15.899
-0.124324
12.0785
-0.120295
9.2023
-0.11794
7.03188
-0.11748
5.39012
-0.118691
4.1417
-0.122064
3.19521
-0.128071
2.47224
-0.137073
1.92025
-0.150196
1.4969
-0.168902
1.17648
-0.189933
0.934758
-0.204533
0.727168
-0.208924
0.531216
-0.206272
0.366232
0.246577
-0.200349
-0.209394
111.952
-0.190381
84.7016
-0.175501
64.0888
-0.163365
48.4564
-0.153409
36.643
-0.144942
27.7091
-0.137484
20.9696
-0.130924
15.8925
-0.12542
12.073
-0.121378
9.19826
-0.118906
7.0294
-0.118207
5.38942
-0.11903
4.14252
-0.121695
3.19787
-0.126642
2.47718
-0.13402
1.92763
-0.144834
1.50772
-0.159887
1.19153
-0.175304
0.950173
-0.184164
0.73603
-0.185119
0.53217
-0.181323
0.362437
0.240752
-0.175501
-0.204226
111.934
-0.187131
84.6845
-0.173624
64.0753
-0.162494
48.4452
-0.153281
36.6337
-0.145357
27.7011
-0.138274
20.9625
-0.13194
15.8861
-0.12653
12.0676
-0.122467
9.19419
-0.119869
7.0268
-0.118907
5.38845
-0.119306
4.14291
-0.121151
3.19971
-0.124817
2.48084
-0.130187
1.93299
-0.137811
1.51534
-0.147862
1.20157
-0.156676
0.958985
-0.159951
0.739304
-0.158234
0.530452
-0.154113
0.358315
0.235781
-0.149143
-0.19925
111.918
-0.184025
84.6693
-0.171854
64.0631
-0.161708
48.4351
-0.15322
36.6253
-0.145826
27.6937
-0.139111
20.9558
-0.132998
15.88
-0.127677
12.0623
-0.123585
9.1901
-0.120853
7.02406
-0.119606
5.3872
-0.11955
4.14285
-0.120486
3.20064
-0.122678
2.48303
-0.125769
1.93609
-0.129464
1.51903
-0.133628
1.20574
-0.135535
0.960891
-0.133693
0.737464
-0.129887
0.526646
-0.125889
0.354317
0.232004
-0.122113
-0.194467
111.904
-0.181066
84.6559
-0.170201
64.0523
-0.161014
48.4259
-0.153236
36.6175
-0.146361
27.6869
-0.140005
20.9495
-0.134109
15.8741
-0.128874
12.057
-0.124751
9.18597
-0.121883
7.02119
-0.120339
5.38564
-0.119814
4.14232
-0.119799
3.20062
-0.120372
2.4836
-0.121079
1.93679
-0.120333
1.51828
-0.118264
1.20366
-0.113232
0.955858
-0.106418
0.730647
-0.100683
0.520911
-0.0968548
0.350488
0.229403
-0.0942541
-0.18329
111.885
-0.167496
84.6401
-0.156043
64.0408
-0.147163
48.417
-0.140082
36.6104
-0.134047
27.6808
-0.128542
20.944
-0.123415
15.869
-0.1188
12.0524
-0.115084
9.18226
-0.112417
7.01852
-0.110777
5.384
-0.109897
4.14144
-0.109069
3.19979
-0.107994
2.48252
-0.106501
1.9353
-0.101696
1.51348
-0.0943695
1.19634
-0.0835119
0.944999
-0.0723924
0.71953
-0.0647777
0.513293
-0.0608634
0.346572
0.227766
-0.0592273
-0.145945
111.87
-0.133628
84.6278
-0.124719
64.0319
-0.117817
48.4101
-0.112311
36.6049
-0.107606
27.6761
-0.103282
20.9396
-0.0992094
15.8649
-0.0954873
12.0487
-0.0924111
9.17917
-0.0901339
7.01624
-0.088546
5.38241
-0.0874532
4.14033
-0.0861879
3.19852
-0.0840467
2.48037
-0.0813491
1.93259
-0.074898
1.50702
-0.0658796
1.18731
-0.053157
0.932273
-0.0406738
0.707041
-0.0318869
0.504507
-0.0272579
0.34194
0.22596
-0.0254552
-0.116175
111.858
-0.106552
84.6182
-0.0996075
64.025
-0.094233
48.4047
-0.0899468
36.6006
-0.086277
27.6725
-0.0828823
20.9362
-0.0796509
15.8617
-0.0766561
12.0457
-0.0741235
9.17664
-0.072198
7.01431
-0.0707373
5.38095
-0.0695877
4.13918
-0.0682089
3.19714
-0.0656768
2.47784
-0.0625654
1.92948
-0.0559725
1.50043
-0.0471406
1.17848
-0.0345604
0.919693
-0.0224232
0.694907
-0.0135997
0.495679
-0.00882521
0.337164
0.224045
-0.00691257
-0.0924371
111.849
-0.084894
84.6106
-0.0794613
64.0195
-0.0752623
48.4005
-0.0719159
36.5973
-0.0690476
27.6696
-0.0663806
20.9336
-0.0638185
15.8591
-0.0614139
12.0433
-0.059339
9.17456
-0.0577242
7.01269
-0.0564258
5.37964
-0.0553123
4.13806
-0.053985
3.1958
-0.0514624
2.47531
-0.0483069
1.92632
-0.0423119
1.49443
-0.0343427
1.17051
-0.022996
0.908343
-0.0120675
0.683974
-0.00401431
0.487628
0.000483521
0.332663
0.222114
0.00241351
-0.0735222
111.841
-0.0675921
84.6047
-0.0633289
64.0153
-0.0600387
48.3972
-0.0574194
36.5946
-0.0551735
27.6674
-0.0530769
20.9315
-0.0510466
15.8571
-0.0491192
12.0414
-0.0474262
9.17287
-0.0460801
7.01135
-0.0449524
5.37852
-0.0439253
4.13704
-0.0427179
3.1946
-0.0404134
2.47301
-0.0374051
1.92331
-0.0322638
1.48929
-0.0253191
1.16356
-0.0157101
0.898735
-0.00632198
0.674588
0.000649645
0.480653
0.00471696
0.328598
0.220238
0.00659173
-0.0584278
111.836
-0.0537297
84.6
-0.0503563
64.0119
-0.0477574
48.3946
-0.0456921
36.5926
-0.0439233
27.6656
-0.0422694
20.9298
-0.0406588
15.8555
-0.0391152
12.0399
-0.0377381
9.17149
-0.0366214
7.01022
-0.0356567
5.37755
-0.0347392
4.13611
-0.0336734
3.19352
-0.0316758
2.47101
-0.028924
1.92056
-0.0246387
1.485
-0.018766
1.15769
-0.0110143
0.89098
-0.00326003
0.666831
0.00258389
0.474812
0.00614402
0.325035
0.218469
0.00791291
-0.0465658
111.831
-0.0429458
84.5964
-0.0403546
64.0093
-0.0383615
48.3927
-0.0367781
36.591
-0.0354182
27.6642
-0.0341359
20.9285
-0.0328715
15.8542
-0.0316416
12.0386
-0.0305245
9.17037
-0.0295996
7.0093
-0.0287791
5.37673
-0.0279721
4.13531
-0.027033
3.19259
-0.0253271
2.4693
-0.0228626
1.91809
-0.0192556
1.48139
-0.0142929
1.15273
-0.00802492
0.884713
-0.00162432
0.660433
0.00328297
0.469902
0.00637086
0.32195
0.216834
0.00800489
-0.0368622
111.828
-0.0338879
84.5934
-0.0317559
64.0072
-0.0301196
48.391
-0.028825
36.5897
-0.0277214
27.6631
-0.0266894
20.9275
-0.0256763
15.8532
-0.0246892
12.0376
-0.0237844
9.16946
-0.0230226
7.00853
-0.0223345
5.37603
-0.0216443
4.13461
-0.0208438
3.19178
-0.0194601
2.46791
-0.017361
1.91599
-0.0144407
1.47847
-0.0105426
1.14882
-0.00580471
0.879972
-0.000845344
0.65547
0.0030945
0.465965
0.00567358
0.319369
0.215397
0.00711196
-0.0292567
111.82
-0.0230087
84.5871
-0.0181918
64.0023
-0.0143819
48.3872
-0.0113372
36.5867
-0.00882513
27.6606
-0.00663959
20.9253
-0.00464291
15.8512
-0.00276404
12.0358
-0.001005
9.16771
0.000609444
7.00692
0.00216755
5.37448
0.00375445
4.13302
0.00549539
3.19004
0.00794816
2.46546
0.0109817
1.91296
0.014779
1.47467
0.0195335
1.14407
0.024478
0.87503
0.0286305
0.651321
0.0307452
0.463848
0.0310086
0.319107
0.216411
0.0299929
-0.0307137
111.812
-0.0241572
84.5806
-0.0191039
63.9973
-0.0151102
48.3832
-0.0119217
36.5835
-0.00929365
27.658
-0.00700754
20.923
-0.00491485
15.8491
-0.0029363
12.0338
-0.00107054
9.16583
0.000657174
7.00518
0.00234003
5.37279
0.0040734
4.13128
0.00597019
3.18814
0.00863846
2.46279
0.0119351
1.90966
0.0159199
1.47068
0.0210056
1.13898
0.026313
0.86972
0.0307629
0.646869
0.0331515
0.461462
0.0335957
0.318661
0.217295
0.0327133
-0.0322431
111.804
-0.0253628
84.5737
-0.0200613
63.992
-0.0158749
48.379
-0.0125358
36.5801
-0.00978651
27.6552
-0.0073955
20.9207
-0.00520271
15.8469
-0.0031202
12.0317
-0.00114267
9.16386
0.000704297
7.00334
0.00251817
5.37098
0.00440593
4.1294
0.00646843
3.18608
0.00934923
2.45991
0.0129251
1.90608
0.0171401
1.46647
0.0225415
1.13358
0.0281978
0.864067
0.0329041
0.642166
0.0355317
0.458833
0.0361409
0.318054
0.218043
0.035392
-0.0338483
111.795
-0.0266281
84.5665
-0.0210662
63.9864
-0.0166779
48.3746
-0.013181
36.5766
-0.0103049
27.6524
-0.00780441
20.9182
-0.0055073
15.8446
-0.00331629
12.0295
-0.00122186
9.16176
0.000750485
7.00136
0.00270178
5.36902
0.0047517
4.12734
0.00698976
3.18383
0.0100796
2.45682
0.0139513
1.90221
0.0184352
1.46198
0.0241264
1.12789
0.0300965
0.858094
0.0350113
0.63725
0.0378164
0.45603
0.0385662
0.317303
0.218672
0.0379375
-0.035533
111.785
-0.0279565
84.5589
-0.0221214
63.9806
-0.0175212
48.37
-0.0138588
36.573
-0.0108502
27.6494
-0.00823541
20.9155
-0.00582956
15.8422
-0.00352535
12.0272
-0.00130862
9.15955
0.000795474
6.99926
0.00289093
5.36693
0.00511054
4.12512
0.0075341
3.18141
0.0108297
2.45353
0.0150113
1.89803
0.0197939
1.4572
0.0257486
1.12194
0.0319804
0.851866
0.0370533
0.632181
0.0399755
0.453106
0.0408445
0.316436
0.219194
0.0403218
-0.0373017
111.776
-0.0293509
84.551
-0.023229
63.9745
-0.0184066
48.3652
-0.014571
36.5691
-0.0114237
27.6462
-0.00868968
20.9128
-0.00617048
15.8397
-0.00374818
12.0248
-0.00140357
9.1572
0.000839066
6.99701
0.00308589
5.36467
0.0054828
4.12272
0.00810236
3.17879
0.0116019
2.45002
0.0161037
1.89352
0.0212067
1.4521
0.0274004
1.11574
0.0338248
0.84544
0.0390086
0.626996
0.0420036
0.450114
0.0429661
0.315472
0.219617
0.0425441
-0.0391577
111.765
-0.0308146
84.5426
-0.0243919
63.968
-0.0193364
48.3602
-0.0153192
36.5651
-0.0120269
27.6429
-0.00916845
20.91
-0.00653107
15.8371
-0.0039856
12.0223
-0.00150711
9.15472
0.00088137
6.99462
0.00328749
5.36227
0.00586975
4.12014
0.00869691
3.17596
0.0124012
2.44632
0.0172312
1.88869
0.0226594
1.44667
0.0290699
1.10933
0.0356176
0.838895
0.0408713
0.621746
0.0439106
0.447074
0.0449411
0.314444
0.219939
0.0446186
-0.0411062
111.755
-0.0323511
84.5339
-0.0256125
63.9613
-0.0203127
48.3549
-0.0161053
36.5609
-0.0126613
27.6395
-0.00967289
20.907
-0.00691233
15.8343
-0.00423821
12.0196
-0.00161951
9.1521
0.000922687
6.99208
0.00349698
5.35969
0.00627353
4.11736
0.00932135
3.17291
0.013235
2.4424
0.0183987
1.88353
0.024135
1.44093
0.0307447
1.10272
0.0373622
0.832276
0.0426424
0.616465
0.0457135
0.444005
0.046793
0.313363
0.220162
0.0465706
-0.0431513
111.743
-0.033964
84.5247
-0.026894
63.9542
-0.0213378
48.3493
-0.0169311
36.5565
-0.0133283
27.6359
-0.0102043
20.9038
-0.00731518
15.8314
-0.00450671
12.0168
-0.00174099
9.14933
0.00096351
6.98937
0.00371587
5.35694
0.00669669
4.11438
0.00997998
3.16963
0.0141108
2.43827
0.0196093
1.87803
0.0256295
1.43491
0.0324286
1.09592
0.0390749
0.825633
0.0443423
0.611202
0.0474281
0.440919
0.0485463
0.312247
0.220291
0.0484172
-0.0452979
111.732
-0.0356571
84.515
-0.0282393
63.9468
-0.0224143
48.3435
-0.0177986
36.5519
-0.0140297
27.6321
-0.0107639
20.9006
-0.00774071
15.8284
-0.00479177
12.0138
-0.00187177
9.14641
0.00100418
6.98649
0.00394552
5.35399
0.00714176
4.11118
0.010677
3.16609
0.0150364
2.43391
0.0208636
1.8722
0.0271462
1.42863
0.03413
1.08894
0.0407661
0.818995
0.0459958
0.605971
0.0490694
0.437848
0.0502224
0.311093
0.220342
0.0501715
-0.047551
111.719
-0.0374343
84.5049
-0.0296518
63.939
-0.0235445
48.3374
-0.0187098
36.5471
-0.014767
27.6282
-0.0113532
20.8972
-0.00818996
15.8252
-0.00509416
12.0107
-0.00201221
9.14333
0.00104499
6.98344
0.00418709
5.35086
0.00761089
4.10776
0.0114158
3.16229
0.0160179
2.42931
0.022162
1.86606
0.0286789
1.42211
0.035837
1.08178
0.0424288
0.812406
0.0476017
0.600802
0.0506339
0.434815
0.051821
0.309907
0.220328
0.0518346
-0.0499163
111.706
-0.0393
84.4943
-0.0311342
63.9309
-0.0247312
48.331
-0.0196669
36.542
-0.015542
27.624
-0.0119735
20.8936
-0.00866404
15.8219
-0.0054147
12.0075
-0.0021627
9.14007
0.001086
6.98018
0.00444149
5.34749
0.00810574
4.10409
0.0121987
3.15819
0.0170582
2.42445
0.0235049
1.85961
0.0302187
1.4154
0.0375242
1.07447
0.0440492
0.805879
0.0491398
0.595711
0.0521151
0.431842
0.0533218
0.3087
0.220263
0.0533876
-0.0523987
111.692
-0.0412585
84.4832
-0.0326907
63.9223
-0.0259772
48.3243
-0.0206722
36.5367
-0.0163567
27.6197
-0.0126264
20.8899
-0.00916421
15.8185
-0.00575421
12.0041
-0.00232374
9.13665
0.00112719
6.97674
0.00470929
5.34392
0.00862742
4.10017
0.0130267
3.15379
0.0181575
2.41932
0.0248901
1.85288
0.0317688
1.40852
0.0391769
1.06707
0.0456199
0.799438
0.0506047
0.590729
0.0535106
0.428935
0.0547105
0.307501
0.220166
0.0548073
-0.0550045
111.678
-0.0433143
84.4715
-0.0343246
63.9133
-0.0272853
48.3172
-0.021728
36.5311
-0.0172128
27.6152
-0.0133134
20.886
-0.00969166
15.8148
-0.00611364
12.0005
-0.00249586
9.13302
0.00116839
6.97307
0.00499082
5.34009
0.0091765
4.09598
0.0138994
3.14907
0.0193133
2.4139
0.0263161
1.84587
0.0333391
1.4015
0.0407932
1.05961
0.0471379
0.793092
0.0519983
0.585868
0.0548263
0.42611
0.0559892
0.306338
0.220067
0.0560886