/*--------------------------------*- C++ -*----------------------------------*\
  =========                 |
  \\      /  F ield         | OpenFOAM: The Open Source CFD Toolbox
   \\    /   O peration     | Website:  https://openfoam.org
    \\  /    A nd           | Version:  7
     \\/     M anipulation  |
\*---------------------------------------------------------------------------*/
FoamFile
{
    version     2.0;
    format      ascii;
    class       volVectorField;
    location    "50";
    object      U;
}
// * * * * * * * * * * * * * * * * * * * * * * * * * * * * * * * * * * * * * //

dimensions      [0 1 -1 0 0 0 0];

internalField   nonuniform List<vector> 
12842
(
(15.467 2.17487 -3.57618e-18)
(15.4647 2.17234 -1.78511e-19)
(15.4613 2.17179 -5.94125e-20)
(15.4559 2.1719 1.44923e-19)
(15.4483 2.17293 -4.69601e-19)
(15.4385 2.17597 0)
(15.4259 2.18222 0)
(15.4097 2.193 -2.0895e-20)
(15.388 2.20963 -3.60815e-21)
(15.3593 2.23337 -5.90978e-21)
(15.3216 2.2654 5.40109e-21)
(15.273 2.30678 -2.68723e-20)
(15.2122 2.35847 1.10482e-19)
(15.1381 2.42117 5.09679e-20)
(15.0509 2.49507 -6.79462e-20)
(14.9511 2.57951 -2.05922e-19)
(14.8406 2.67272 -1.92776e-19)
(14.7225 2.77174 0)
(14.6007 2.87278 1.77772e-20)
(14.4795 2.97184 1.28657e-19)
(14.3634 3.0652 1.74462e-20)
(14.2559 3.15027 -8.28389e-20)
(14.1604 3.22503 5.9858e-20)
(15.4661 2.17569 2.66583e-18)
(15.4632 2.17457 0)
(15.4598 2.1753 -6.2343e-19)
(15.4546 2.17633 2.59901e-19)
(15.4478 2.17822 3.55841e-19)
(15.4399 2.18226 0)
(15.4304 2.19 1.49009e-19)
(15.4183 2.20311 0)
(15.4021 2.22324 2.82674e-19)
(15.3796 2.25188 3.09961e-20)
(15.3487 2.29026 1.97145e-22)
(15.3074 2.33935 1.06716e-19)
(15.2541 2.3999 -1.05626e-19)
(15.1879 2.47227 1.14804e-19)
(15.1084 2.55628 0)
(15.0164 2.65082 2.16579e-19)
(14.9133 2.75356 2.76791e-19)
(14.8018 2.86101 -3.53874e-19)
(14.6853 2.96888 0)
(14.568 3.07291 -1.62207e-19)
(14.4544 3.16919 -2.50218e-19)
(14.3483 3.25575 2.20979e-19)
(14.2536 3.3288 -2.26368e-19)
(15.4648 2.17661 0)
(15.462 2.17694 0)
(15.4588 2.17864 8.54837e-21)
(15.4536 2.18016 -1.47715e-18)
(15.4476 2.18236 0)
(15.4414 2.18676 0)
(15.4348 2.19521 3.02064e-19)
(15.4269 2.20978 -5.72008e-19)
(15.416 2.23249 -1.7141e-19)
(15.3998 2.26508 -2.35332e-19)
(15.3757 2.30883 -4.94167e-19)
(15.3415 2.36458 -1.04034e-19)
(15.2954 2.43282 8.01156e-21)
(15.2366 2.51364 -1.22111e-19)
(15.1647 2.60656 0)
(15.0805 2.71016 -8.02093e-20)
(14.985 2.82178 1.02895e-19)
(14.8805 2.93748 2.26311e-19)
(14.7703 3.05255 2.79399e-19)
(14.6581 3.1624 -2.11444e-19)
(14.5486 3.26285 1.85659e-19)
(14.4454 3.35246 0)
(14.353 3.42551 8.27943e-20)
(15.4634 2.17788 6.21823e-19)
(15.4614 2.17945 -3.64586e-19)
(15.4582 2.18189 8.003e-19)
(15.4528 2.18359 1.80999e-18)
(15.4474 2.18572 -9.65287e-20)
(15.4428 2.18994 -3.44126e-19)
(15.4391 2.19845 2.06174e-19)
(15.4354 2.21369 5.63074e-19)
(15.4298 2.23812 1.4196e-18)
(15.4198 2.27376 -9.00926e-19)
(15.4025 2.32197 1.30601e-18)
(15.3752 2.38342 -8.79123e-20)
(15.3361 2.45833 1.14782e-19)
(15.2844 2.54649 1.68224e-19)
(15.2201 2.64718 4.37217e-20)
(15.1438 2.75881 -5.64186e-20)
(15.0566 2.8785 -5.05496e-20)
(14.9602 3.00203 -1.4165e-19)
(14.8573 3.12431 -9.74799e-20)
(14.7516 3.2405 -3.33188e-20)
(14.6475 3.34601 -7.17169e-20)
(14.5487 3.4399 -9.16326e-20)
(14.4599 3.51451 1.80218e-19)
(15.462 2.1796 5.60626e-18)
(15.4612 2.18206 0)
(15.4579 2.1851 -7.63961e-20)
(15.4521 2.1868 -6.51411e-19)
(15.4472 2.18859 -1.11955e-19)
(15.4441 2.19223 1.20474e-18)
(15.4431 2.2002 3.07162e-19)
(15.4434 2.2154 -2.2873e-18)
(15.4432 2.24075 -1.58335e-18)
(15.4395 2.27862 1.07658e-18)
(15.4289 2.33049 -1.67014e-18)
(15.4085 2.39688 -1.00643e-18)
(15.3764 2.47768 1.76476e-19)
(15.3319 2.57233 -4.85162e-19)
(15.2755 2.67988 -8.41003e-20)
(15.2077 2.79861 -2.4457e-20)
(15.1295 2.92553 0)
(15.0421 3.05629 1.18277e-19)
(14.9477 3.18555 0)
(14.8497 3.30825 5.1979e-20)
(14.7522 3.41939 -2.48142e-20)
(14.6587 3.51844 7.15698e-20)
(14.5745 3.59577 -1.97028e-20)
(15.4609 2.18174 -4.5787e-18)
(15.4614 2.18471 0)
(15.4577 2.18824 0)
(15.4515 2.18985 -4.80732e-19)
(15.447 2.19113 -2.31362e-19)
(15.4452 2.19387 -8.3476e-19)
(15.4467 2.20082 -2.56271e-18)
(15.451 2.2153 2.51938e-18)
(15.4561 2.24077 0)
(15.4588 2.28003 1.75872e-18)
(15.4549 2.33471 1.60167e-18)
(15.4413 2.40521 4.98871e-19)
(15.416 2.49105 0)
(15.3788 2.59129 3.14346e-19)
(15.3304 2.7047 7.42746e-20)
(15.2717 2.82949 3.48929e-20)
(15.2032 2.96269 1.33359e-20)
(15.1258 3.09996 -5.47135e-20)
(15.0412 3.23583 0)
(14.952 3.36511 1.43062e-19)
(14.8623 3.48232 1.64798e-20)
(14.7751 3.58734 -1.77342e-19)
(14.6965 3.66847 4.63048e-21)
(15.4601 2.18415 4.27376e-19)
(15.4616 2.18732 0)
(15.4576 2.1913 0)
(15.4508 2.19277 4.77362e-19)
(15.4465 2.19345 3.31895e-19)
(15.4456 2.19505 -2.16495e-19)
(15.4491 2.20052 1.5919e-18)
(15.457 2.2136 2.28703e-19)
(15.4672 2.23834 -3.0065e-19)
(15.476 2.27807 -1.95873e-18)
(15.4791 2.33475 -1.79148e-19)
(15.4727 2.40866 1.21816e-18)
(15.4549 2.49891 0)
(15.4254 2.60407 -5.51005e-19)
(15.3853 2.72252 2.1101e-20)
(15.3359 2.85239 -2.72813e-20)
(15.2775 2.99085 5.94533e-20)
(15.2108 3.13378 3.58752e-20)
(15.1366 3.27571 -3.01328e-20)
(15.0572 3.41142 7.19168e-21)
(14.9764 3.53491 1.22354e-20)
(14.8967 3.64646 4.25425e-20)
(14.8247 3.73217 3.20537e-20)
(15.4596 2.18678 0)
(15.462 2.18992 5.1189e-20)
(15.4577 2.19423 -4.53708e-19)
(15.4503 2.19549 -5.30172e-20)
(15.4465 2.1955 -7.65066e-19)
(15.4465 2.19577 2.42252e-19)
(15.4523 2.19948 -2.71641e-20)
(15.4638 2.21072 -2.01099e-18)
(15.4789 2.23415 0)
(15.4934 2.2736 -2.68615e-18)
(15.5024 2.33133 2.02025e-19)
(15.5019 2.4075 1.19031e-19)
(15.4903 2.5008 0)
(15.4679 2.60932 5.40721e-19)
(15.4363 2.73115 -3.29734e-19)
(15.3968 2.86447 0)
(15.3499 3.00675 -5.8655e-20)
(15.2952 3.15427 0)
(15.2331 3.30166 2.59827e-20)
(15.165 3.44381 0)
(15.0946 3.57397 -1.07682e-20)
(15.0238 3.69293 1.1611e-20)
(14.9595 3.78418 1.78998e-20)
(15.4593 2.18952 0)
(15.4625 2.19227 0)
(15.4575 2.19707 4.23528e-20)
(15.4489 2.19848 -1.96981e-20)
(15.4444 2.19821 7.60407e-19)
(15.4438 2.19754 1.60747e-18)
(15.4502 2.19953 0)
(15.4639 2.20847 1.90454e-18)
(15.4834 2.22952 0)
(15.5043 2.26732 5.60501e-18)
(15.521 2.32482 1.8615e-18)
(15.5285 2.40254 -1.07085e-18)
(15.524 2.49897 -8.84165e-20)
(15.5078 2.61153 0)
(15.4819 2.73753 3.5005e-19)
(15.4487 2.87468 2.39061e-19)
(15.4092 3.02042 -1.8441e-20)
(15.3634 3.1714 1.49796e-19)
(15.3113 3.32251 1.40979e-19)
(15.2536 3.46903 0)
(15.1932 3.60361 2.44204e-20)
(15.1314 3.72802 8.30488e-21)
(15.075 3.82336 -8.75608e-21)
(15.4591 2.19262 7.09822e-20)
(15.463 2.19464 -4.3983e-19)
(15.4574 2.1996 3.46782e-19)
(15.4481 2.20086 0)
(15.4434 2.2001 2.95852e-20)
(15.4427 2.19849 1.95397e-19)
(15.4499 2.19907 -2.3115e-18)
(15.4656 2.20633 0)
(15.4883 2.22586 0)
(15.5135 2.26272 -2.87153e-18)
(15.5351 2.32026 -1.98019e-18)
(15.5474 2.39903 -3.61213e-20)
(15.5475 2.49731 8.20059e-19)
(15.5358 2.61207 -3.01282e-20)
(15.5148 2.7402 -5.36649e-20)
(15.4875 2.87925 7.51978e-20)
(15.4551 3.02674 -1.73962e-19)
(15.4177 3.17973 -1.44375e-19)
(15.3748 3.33326 -1.57387e-19)
(15.3266 3.48299 -1.42005e-19)
(15.2758 3.62095 3.92704e-20)
(15.2225 3.74973 -1.70167e-19)
(15.174 3.84867 2.92199e-20)
(15.4591 2.19578 -4.42441e-18)
(15.4636 2.19693 5.63747e-19)
(15.4574 2.20204 -1.05906e-20)
(15.4474 2.20314 -3.14267e-20)
(15.4425 2.20181 -1.87252e-20)
(15.4416 2.19921 -1.76649e-18)
(15.4495 2.1983 4.53952e-18)
(15.467 2.20382 1.50699e-19)
(15.4927 2.22181 -1.15916e-19)
(15.5219 2.25781 -3.31057e-18)
(15.5481 2.31551 6.60008e-20)
(15.5651 2.39544 -1.47653e-18)
(15.5699 2.49556 -7.34313e-19)
(15.5628 2.61232 0)
(15.5469 2.74212 4.83393e-19)
(15.5256 2.88239 -5.88899e-19)
(15.5007 3.03084 -6.68915e-20)
(15.4722 3.185 1.92473e-19)
(15.4394 3.34014 -2.91047e-21)
(15.4019 3.49239 1.81812e-19)
(15.3619 3.63315 0)
(15.3184 3.76578 5.89934e-20)
(15.2794 3.86805 0)
(15.4594 2.19891 6.66384e-18)
(15.4642 2.1991 1.91878e-19)
(15.4573 2.20437 -1.24723e-20)
(15.4467 2.20536 7.30542e-20)
(15.4416 2.20348 6.45054e-19)
(15.4405 2.19993 -4.64301e-20)
(15.4491 2.19751 -2.38232e-18)
(15.4681 2.20125 4.71555e-20)
(15.4967 2.21763 -1.38408e-19)
(15.5298 2.25268 3.41664e-18)
(15.5605 2.31048 0)
(15.5822 2.39155 1.35118e-18)
(15.5916 2.49347 7.70464e-20)
(15.5893 2.6121 -3.01196e-20)
(15.5785 2.7433 -4.99336e-19)
(15.5635 2.88431 -2.09157e-20)
(15.5464 3.03303 1.71397e-19)
(15.5273 3.18753 -3.38812e-19)
(15.5053 3.34336 0)
(15.4793 3.4972 -1.62263e-19)
(15.4514 3.63986 2.1749e-19)
(15.4193 3.7755 0)
(15.3909 3.88053 -1.18141e-19)
(15.4599 2.20194 -2.1982e-18)
(15.4648 2.20114 -1.42853e-19)
(15.4571 2.2066 -1.18724e-20)
(15.4461 2.20752 -1.96111e-20)
(15.4408 2.20513 -1.27914e-18)
(15.4394 2.20069 -2.66741e-22)
(15.4485 2.19677 3.29987e-20)
(15.469 2.1987 2.79297e-18)
(15.5003 2.21338 -6.58966e-20)
(15.537 2.24737 0)
(15.5722 2.30514 2.5036e-18)
(15.5986 2.38722 4.88358e-20)
(15.6127 2.49083 2.47979e-20)
(15.6151 2.6112 -3.58654e-21)
(15.6096 2.74357 -5.63659e-20)
(15.6009 2.8849 3.70592e-19)
(15.5917 3.03323 -2.35119e-19)
(15.5825 3.18723 -5.07853e-20)
(15.572 3.34269 -8.41479e-20)
(15.5587 3.49698 2.34763e-19)
(15.5439 3.64036 -1.59967e-19)
(15.5245 3.77783 3.52026e-19)
(15.5079 3.88475 -2.27998e-19)
(15.4605 2.20484 -2.13091e-18)
(15.4653 2.20303 -5.02098e-20)
(15.457 2.20873 -2.8715e-21)
(15.4456 2.20961 1.11531e-20)
(15.4399 2.20674 1.34966e-18)
(15.4383 2.20147 2.96856e-22)
(15.4478 2.19607 -3.4712e-20)
(15.4697 2.19617 1.3118e-19)
(15.5035 2.20907 -2.53718e-18)
(15.5438 2.24188 1.9823e-18)
(15.5833 2.29949 -2.62464e-18)
(15.6144 2.38246 -1.59518e-18)
(15.6333 2.48765 9.4725e-19)
(15.6404 2.60962 0)
(15.6401 2.7429 3.30603e-19)
(15.6378 2.88411 0)
(15.6367 3.03133 3.12341e-19)
(15.6377 3.18384 2.0471e-19)
(15.6394 3.33769 -6.97205e-21)
(15.6396 3.49104 -2.90425e-19)
(15.639 3.63363 -9.58155e-21)
(15.6334 3.7714 6.39045e-21)
(15.6298 3.87896 -1.07518e-19)
(15.4613 2.20759 6.69032e-20)
(15.4658 2.20478 -3.39914e-21)
(15.457 2.21076 2.908e-21)
(15.4451 2.21165 -1.10642e-20)
(15.4391 2.20836 -6.80347e-19)
(15.4371 2.20231 0)
(15.447 2.19544 2.97697e-20)
(15.47 2.19366 -2.92156e-18)
(15.5063 2.20469 -1.07261e-19)
(15.5501 2.23619 -1.98679e-18)
(15.5939 2.29348 1.43828e-18)
(15.6297 2.37721 2.51423e-18)
(15.6534 2.48387 -9.21264e-19)
(15.6653 2.60735 5.37487e-19)
(15.6702 2.74132 4.59173e-20)
(15.6743 2.88195 3.56184e-21)
(15.6815 3.02729 -1.74323e-20)
(15.693 3.17718 -7.20444e-20)
(15.7073 3.32793 5.07131e-20)
(15.7216 3.47863 -1.05694e-19)
(15.7361 3.61854 -1.28744e-20)
(15.7453 3.75466 8.83654e-20)
(15.7556 3.86121 0)
(15.4621 2.21019 9.2283e-20)
(15.4662 2.20639 0)
(15.4569 2.21268 0)
(15.4448 2.21362 -3.41326e-20)
(15.4383 2.20996 -7.25241e-19)
(15.4359 2.20317 1.20014e-18)
(15.446 2.19485 1.87455e-20)
(15.4702 2.19117 -2.8697e-20)
(15.5088 2.20025 2.68917e-18)
(15.556 2.23028 -3.33681e-20)
(15.6041 2.28712 1.01039e-19)
(15.6446 2.37148 -8.65904e-19)
(15.6732 2.47953 0)
(15.6901 2.60442 -5.76243e-19)
(15.7002 2.73886 -7.35555e-19)
(15.7106 2.87844 -2.83023e-19)
(15.726 3.02099 -1.80242e-19)
(15.7481 3.16697 0)
(15.7753 3.3129 0)
(15.8041 3.45893 1.74447e-19)
(15.8342 3.59389 1.29609e-19)
(15.8588 3.72596 -2.76387e-19)
(15.8837 3.82944 0)
(15.463 2.21261 2.01515e-18)
(15.4665 2.20788 -1.93481e-21)
(15.4569 2.21452 1.65534e-21)
(15.4444 2.21552 3.53623e-20)
(15.4375 2.21154 1.4387e-18)
(15.4348 2.20407 -2.41571e-18)
(15.445 2.1943 -1.93009e-20)
(15.4702 2.18868 -2.97141e-20)
(15.5109 2.1957 3.91187e-20)
(15.5615 2.22415 0)
(15.614 2.28037 -1.45739e-18)
(15.6593 2.36524 9.44397e-19)
(15.693 2.4746 0)
(15.7149 2.60083 0)
(15.7302 2.73555 3.54642e-19)
(15.7468 2.87355 2.02187e-20)
(15.7703 3.01236 2.04976e-19)
(15.8028 3.15294 1.72976e-19)
(15.8428 3.29205 -2.7452e-19)
(15.8862 3.43105 -1.11535e-19)
(15.9319 3.55835 4.55051e-19)
(15.9719 3.68353 -4.48859e-19)
(16.0115 3.78142 3.0405e-19)
(15.4638 2.21487 -9.37653e-19)
(15.4668 2.20925 8.42094e-20)
(15.4569 2.21626 -9.64607e-22)
(15.4441 2.21737 1.27703e-21)
(15.4368 2.21312 -7.29339e-19)
(15.4336 2.20501 1.2369e-18)
(15.4439 2.19381 -1.64242e-20)
(15.4699 2.1862 -8.99456e-21)
(15.5128 2.19105 4.03606e-20)
(15.5666 2.21774 1.79815e-20)
(15.6235 2.27317 -2.36076e-20)
(15.6739 2.35842 -9.45626e-19)
(15.7128 2.46901 5.93757e-19)
(15.7399 2.59654 -2.16407e-20)
(15.7604 2.73135 0)
(15.7829 2.86727 -2.92857e-20)
(15.814 3.00126 2.60244e-20)
(15.8565 3.13481 -1.74772e-19)
(15.9088 3.26486 3.45497e-19)
(15.9663 3.39421 2.2776e-19)
(16.027 3.5109 -1.60672e-19)
(16.082 3.62602 -2.68088e-19)
(16.1357 3.71554 3.48646e-19)
(15.4646 2.21696 3.36436e-20)
(15.467 2.21052 -8.0757e-20)
(15.457 2.21791 0)
(15.4439 2.21916 0)
(15.4361 2.2147 0)
(15.4324 2.20598 0)
(15.4427 2.19335 1.6841e-20)
(15.4695 2.18371 -6.44391e-21)
(15.5143 2.18627 -2.07606e-20)
(15.5714 2.21102 1.86014e-20)
(15.6328 2.26549 -2.44255e-20)
(15.6884 2.35095 0)
(15.7328 2.4627 -1.17897e-18)
(15.7651 2.59149 2.06012e-20)
(15.7907 2.72624 -4.08319e-20)
(15.8188 2.85957 3.30871e-19)
(15.8568 2.98764 -2.69307e-20)
(15.9085 3.11244 5.34351e-20)
(15.972 3.23102 -6.43267e-20)
(16.0423 3.34783 1.2381e-19)
(16.1168 3.45058 -1.91222e-19)
(16.1852 3.55217 0)
(16.2517 3.62998 2.14876e-19)
(15.4654 2.21888 1.75966e-18)
(15.4672 2.21169 -2.1469e-20)
(15.4572 2.21948 1.5772e-21)
(15.4437 2.22091 1.99749e-20)
(15.4354 2.21628 3.66423e-19)
(15.4312 2.20701 7.78981e-21)
(15.4413 2.19296 -1.67321e-18)
(15.4687 2.18122 1.74877e-18)
(15.5154 2.18137 1.52997e-18)
(15.5757 2.20399 0)
(15.6417 2.25725 2.52137e-20)
(15.7027 2.34276 -1.09294e-18)
(15.753 2.45559 6.19288e-19)
(15.7908 2.58563 3.34103e-19)
(15.8213 2.72022 2.16627e-19)
(15.8542 2.85047 0)
(15.8981 2.97148 0)
(15.9573 3.08566 -1.93239e-19)
(16.0304 3.19019 -2.46569e-19)
(16.1116 3.2917 1.33274e-19)
(16.1977 3.37769 1.07967e-19)
(16.2772 3.46269 1.4933e-19)
(16.3546 3.52662 -2.25214e-19)
(15.4662 2.22067 -8.64065e-19)
(15.4673 2.2128 2.20664e-20)
(15.4573 2.22099 5.38641e-22)
(15.4435 2.2226 -7.91413e-22)
(15.4347 2.21783 -3.66404e-19)
(15.4301 2.208 -6.44791e-19)
(15.44 2.19251 8.06153e-19)
(15.468 2.1786 -1.73227e-18)
(15.5166 2.1762 -1.52386e-18)
(15.58 2.19652 -3.57738e-20)
(15.6506 2.2484 0)
(15.7172 2.3338 1.06017e-18)
(15.7734 2.44762 6.45169e-19)
(15.8167 2.57894 -3.58009e-19)
(15.8518 2.71333 -1.89334e-19)
(15.8888 2.8401 -7.77707e-20)
(15.9373 2.95311 -5.9385e-20)
(16.0025 3.05519 3.79474e-19)
(16.0829 3.14391 0)
(16.1722 3.22775 0)
(16.2668 3.2949 1.07318e-19)
(16.3541 3.36034 -2.81898e-19)
(16.4393 3.40844 -2.2213e-19)
(15.4668 2.22226 8.14278e-19)
(15.4674 2.21383 0)
(15.4575 2.2224 0)
(15.4434 2.22433 -3.98875e-20)
(15.434 2.21957 3.61001e-19)
(15.4287 2.20934 6.60037e-19)
(15.4381 2.19251 -1.35452e-20)
(15.4663 2.17637 8.86243e-19)
(15.5165 2.17115 3.63442e-20)
(15.5832 2.18873 -1.2971e-18)
(15.6588 2.23877 2.69954e-20)
(15.7316 2.32369 -3.54613e-20)
(15.7944 2.4384 -6.4541e-19)
(15.8436 2.57111 3.73316e-19)
(15.8833 2.70545 2.00735e-19)
(15.9234 2.82871 -1.41441e-19)
(15.9745 2.93318 1.37777e-19)
(16.0425 3.02183 -1.8547e-19)
(16.1268 3.09298 0)
(16.2204 3.1568 0)
(16.3195 3.20334 -9.51772e-20)
(16.4107 3.24692 6.9663e-20)
(16.4997 3.27748 -2.14097e-19)
(15.4676 2.22381 -1.96043e-20)
(15.4674 2.21472 1.74651e-20)
(15.4578 2.22367 0)
(15.4434 2.22552 9.55823e-21)
(15.4338 2.22038 -7.34414e-19)
(15.4284 2.20929 8.12907e-21)
(15.4382 2.19082 -2.79291e-20)
(15.4673 2.1725 -9.19649e-19)
(15.5194 2.16492 2.28513e-20)
(15.589 2.18041 1.2985e-18)
(15.6686 2.22913 -2.76755e-20)
(15.7465 2.31383 -5.73532e-19)
(15.8149 2.42931 -4.15208e-20)
(15.8693 2.56312 -3.46179e-19)
(15.9127 2.6972 -2.25672e-19)
(15.9548 2.8167 2.626e-20)
(16.0068 2.91214 0)
(16.0755 2.98649 -2.46215e-20)
(16.1605 3.0391 3.19831e-20)
(16.2546 3.08164 0)
(16.3535 3.10676 8.65555e-20)
(16.4446 3.1279 -6.76463e-20)
(16.533 3.14056 0)
(15.4681 2.22499 -7.95294e-19)
(15.4676 2.21592 -1.7421e-20)
(15.4578 2.22533 0)
(15.4429 2.22845 1.04051e-20)
(15.4324 2.22429 7.38801e-19)
(15.4257 2.21398 6.76741e-19)
(15.4342 2.19484 1.76284e-18)
(15.4629 2.17397 0)
(15.5163 2.162 1.71192e-18)
(15.5895 2.17238 -1.34905e-18)
(15.6751 2.21688 9.46126e-19)
(15.7605 2.29934 5.9018e-19)
(15.8373 2.41507 -4.86312e-21)
(15.8991 2.55115 6.36047e-21)
(15.9468 2.68729 -1.97588e-19)
(15.989 2.80534 1.26957e-19)
(16.0379 2.89295 0)
(16.1018 2.95244 6.7843e-20)
(16.1817 2.98489 0)
(16.2706 3.00379 0)
(16.364 3.0057 -8.39524e-20)
(16.4503 3.00371 -1.85432e-19)
(16.5333 2.99805 1.62905e-19)
(15.4684 2.22585 0)
(15.4675 2.21656 5.30414e-24)
(15.4579 2.22619 -1.09241e-23)
(15.4427 2.22977 -1.40798e-20)
(15.432 2.22599 -1.80462e-19)
(15.425 2.2159 -6.76273e-19)
(15.4332 2.19633 -8.89495e-19)
(15.4621 2.1741 -1.13619e-21)
(15.5164 2.15974 -8.31087e-19)
(15.5918 2.16707 -3.90508e-20)
(15.6812 2.20867 3.07602e-20)
(15.7721 2.28916 0)
(15.8554 2.40445 4.93046e-21)
(15.9237 2.54162 -6.441e-21)
(15.9756 2.67887 2.84789e-19)
(16.0181 2.79531 7.19619e-21)
(16.063 2.87582 0)
(16.1198 2.92157 4.67854e-21)
(16.1908 2.93539 -2.35873e-20)
(16.2698 2.93223 0)
(16.3527 2.91243 0)
(16.4296 2.88926 1.0362e-19)
(16.5019 2.86659 -7.90504e-20)
(15.4688 2.2267 -8.15654e-19)
(15.4675 2.21716 -4.50132e-20)
(15.458 2.227 0)
(15.4426 2.23096 1.4096e-20)
(15.4316 2.22749 -1.91246e-19)
(15.4242 2.21753 -7.19952e-19)
(15.4322 2.19748 9.43539e-19)
(15.4611 2.17391 -9.97137e-19)
(15.5163 2.15729 -8.80336e-19)
(15.5939 2.16177 2.10507e-18)
(15.6871 2.2006 -9.76738e-19)
(15.7837 2.27915 -6.43692e-19)
(15.874 2.39394 -3.71463e-19)
(15.9491 2.53221 0)
(16.0051 2.67104 -9.33524e-20)
(16.0468 2.78701 8.2162e-20)
(16.0849 2.86223 4.02254e-21)
(16.1303 2.89649 -5.82689e-20)
(16.1872 2.89427 0)
(16.2509 2.87147 0)
(16.3181 2.83214 0)
(16.3814 2.79164 -1.31477e-19)
(16.4405 2.75652 1.24288e-19)
(15.4692 2.22751 8.16398e-19)
(15.4675 2.21774 -2.07859e-21)
(15.4581 2.22777 0)
(15.4425 2.23212 -3.06849e-20)
(15.4312 2.22895 -1.55234e-23)
(15.4235 2.21911 1.09635e-18)
(15.4311 2.19857 -1.92198e-18)
(15.46 2.17366 3.05902e-18)
(15.5161 2.15477 -1.00625e-21)
(15.5958 2.15637 -7.14224e-19)
(15.693 2.19234 -5.23519e-19)
(15.7954 2.26879 6.4394e-19)
(15.893 2.38293 3.66159e-19)
(15.9754 2.52244 -1.91369e-19)
(16.0357 2.66365 1.0749e-21)
(16.0755 2.78093 -8.31109e-20)
(16.1046 2.85357 0)
(16.1347 2.87941 0)
(16.1725 2.86403 1.72084e-20)
(16.2158 2.82443 0)
(16.2642 2.76983 0)
(16.3136 2.71849 1.95245e-20)
(16.3598 2.67593 4.18648e-20)
(15.4696 2.22826 0)
(15.4674 2.21829 4.71668e-20)
(15.4582 2.22853 -1.29761e-24)
(15.4424 2.23326 -1.34304e-20)
(15.4309 2.23041 -2.63111e-23)
(15.4228 2.22071 -7.69388e-19)
(15.43 2.19969 9.78437e-19)
(15.4589 2.17344 -2.06201e-18)
(15.5158 2.15225 -9.64171e-19)
(15.5976 2.15088 0)
(15.6987 2.18382 5.20865e-19)
(15.807 2.25793 1.2759e-21)
(15.9121 2.3712 -1.4599e-22)
(16.0022 2.51208 1.89968e-19)
(16.067 2.65664 0)
(16.1047 2.77742 2.17234e-20)
(16.1229 2.85082 -3.56589e-22)
(16.1343 2.87209 0)
(16.1488 2.84764 -1.7089e-20)
(16.169 2.79648 0)
(16.1992 2.73281 0)
(16.2343 2.67439 0)
(16.2628 2.62324 -8.34785e-21)
(15.47 2.22897 0)
(15.4674 2.21882 -1.79431e-20)
(15.4583 2.22926 5.11423e-26)
(15.4423 2.23439 4.41775e-20)
(15.4306 2.23188 2.46954e-19)
(15.4221 2.22233 8.05096e-19)
(15.429 2.20086 0)
(15.4578 2.17327 -1.09455e-18)
(15.5154 2.14975 1.95451e-18)
(15.5992 2.14529 -1.09611e-23)
(15.7042 2.17502 5.51297e-19)
(15.8184 2.24651 -3.52147e-19)
(15.9312 2.35866 0)
(16.0294 2.501 0)
(16.0993 2.64993 7.19781e-20)
(16.1351 2.7767 -2.13486e-20)
(16.1412 2.85489 0)
(16.1314 2.87676 2.9832e-20)
(16.12 2.84925 2.17836e-20)
(16.116 2.79151 0)
(16.1254 2.71857 9.10404e-23)
(16.1384 2.64916 1.50148e-22)
(16.1441 2.58752 -1.13382e-20)
(15.4704 2.22964 -1.42153e-24)
(15.4674 2.21933 3.06057e-20)
(15.4585 2.22996 1.2511e-24)
(15.4423 2.2355 0)
(15.4304 2.23334 1.73452e-20)
(15.4215 2.22398 -8.40743e-19)
(15.428 2.20208 -2.07845e-22)
(15.4566 2.17315 1.09472e-18)
(15.5148 2.14726 -9.9e-19)
(15.6006 2.13963 7.99945e-19)
(15.7093 2.16593 1.36563e-20)
(15.8295 2.23451 7.13929e-19)
(15.9503 2.34522 -4.11064e-19)
(16.0574 2.48907 8.76317e-22)
(16.1332 2.64339 -1.38855e-19)
(16.1677 2.77886 3.7552e-23)
(16.1617 2.86664 1.12011e-21)
(16.1292 2.89567 -3.08264e-20)
(16.0893 2.87046 -2.15915e-20)
(16.0551 2.80482 0)
(16.0339 2.71655 -1.81341e-20)
(16.022 2.63689 0)
(16.0126 2.57216 8.36908e-21)
(15.4708 2.23025 0)
(15.4675 2.21982 -1.26572e-20)
(15.4586 2.23065 -5.02462e-20)
(15.4423 2.2366 1.15465e-24)
(15.4301 2.23481 -5.46061e-19)
(15.4209 2.22566 4.29422e-19)
(15.4269 2.20335 0)
(15.4554 2.1731 0)
(15.5141 2.14481 -5.59348e-22)
(15.6017 2.13388 -7.99342e-19)
(15.7142 2.15655 1.32717e-20)
(15.8404 2.2219 -3.61332e-19)
(15.9694 2.33082 4.08949e-19)
(16.0861 2.47612 0)
(16.169 2.63677 6.66351e-20)
(16.2039 2.78382 9.2153e-23)
(16.1867 2.88667 -3.67755e-20)
(16.1305 2.92941 -3.64008e-21)
(16.056 2.90899 0)
(15.9811 2.83454 0)
(15.9262 2.73858 6.14388e-21)
(15.8983 2.66439 3.44561e-20)
(15.8772 2.60483 -9.30673e-21)
(15.4712 2.23082 0)
(15.4675 2.22029 1.29953e-24)
(15.4588 2.2313 5.02728e-20)
(15.4423 2.23769 5.32352e-20)
(15.4299 2.23629 2.81529e-19)
(15.4203 2.22736 8.4006e-23)
(15.4258 2.20467 5.71562e-19)
(15.454 2.17312 5.88288e-19)
(15.5132 2.14239 -1.05754e-18)
(15.6026 2.12807 0)
(15.7187 2.14688 1.33193e-20)
(15.8511 2.20866 -3.81712e-19)
(15.9885 2.31535 0)
(16.1156 2.46193 -2.19863e-21)
(16.2074 2.62972 6.23877e-20)
(16.245 2.79122 0)
(16.2186 2.91459 -6.37783e-21)
(16.1372 2.9772 4.26139e-21)
(16.0218 2.96796 -1.17435e-19)
(15.9056 2.90126 0)
(15.8281 2.82479 0)
(15.7845 2.7694 -1.92589e-20)
(15.7354 2.71213 7.25892e-20)
(15.4715 2.23134 2.5626e-24)
(15.4675 2.22073 -3.38398e-24)
(15.4589 2.23194 0)
(15.4423 2.23877 6.77258e-20)
(15.4297 2.23776 -1.83251e-22)
(15.4196 2.22909 1.74517e-22)
(15.4247 2.20605 -5.71457e-19)
(15.4526 2.1732 -5.89043e-19)
(15.5121 2.14 1.05794e-18)
(15.6032 2.12218 -8.50883e-19)
(15.7229 2.13691 -5.93192e-19)
(15.8615 2.19477 3.84306e-19)
(16.0075 2.29871 2.20498e-19)
(16.1461 2.44624 1.04891e-19)
(16.2487 2.62171 -5.65565e-20)
(16.2922 2.80018 1.00762e-22)
(16.2596 2.94933 6.3985e-20)
(16.1539 3.04072 6.02737e-20)
(16.001 3.06113 3.33334e-20)
(15.8575 3.03117 -4.467e-20)
(15.7601 2.98765 5.60698e-20)
(15.6765 2.93683 0)
(15.5812 2.8676 -4.40516e-20)
(15.4719 2.23181 0)
(15.4675 2.22115 1.16219e-20)
(15.4591 2.23255 -2.83722e-20)
(15.4423 2.23983 -5.35822e-20)
(15.4295 2.23924 1.64204e-19)
(15.419 2.23084 0)
(15.4235 2.20749 7.63819e-22)
(15.4511 2.17335 -1.00628e-21)
(15.5109 2.13766 5.49477e-19)
(15.6036 2.11623 1.28811e-18)
(15.7268 2.12665 -6.16684e-19)
(15.8715 2.1802 -3.11201e-21)
(16.0265 2.28082 8.37121e-21)
(16.1775 2.42875 -1.06869e-19)
(16.2932 2.61204 0)
(16.3467 2.80941 -3.7174e-20)
(16.313 2.98999 8.05958e-20)
(16.1902 3.12412 -7.31533e-20)
(16.0133 3.19728 -5.67578e-20)
(15.8451 3.21245 -8.48276e-21)
(15.6951 3.17679 7.47877e-20)
(15.5368 3.10157 -5.92804e-20)
(15.3855 3.00888 -6.03359e-20)
(15.4723 2.23224 -2.01911e-19)
(15.4675 2.22155 5.84705e-21)
(15.4593 2.23313 2.83795e-20)
(15.4424 2.24088 -6.74306e-20)
(15.4293 2.24072 -3.35884e-19)
(15.4184 2.23262 -5.05739e-19)
(15.4224 2.20898 -7.79553e-22)
(15.4495 2.17358 1.02701e-21)
(15.5095 2.13537 -5.49688e-19)
(15.6037 2.11022 -4.3541e-19)
(15.7303 2.11609 1.25336e-18)
(15.8812 2.16493 -4.17562e-19)
(16.0452 2.26157 -2.32003e-19)
(16.2098 2.40914 1.17397e-19)
(16.3411 2.59985 3.16257e-22)
(16.4097 2.81738 3.07079e-20)
(16.3832 3.03565 -8.77746e-20)
(16.2564 3.22733 1.53511e-19)
(16.0623 3.36269 4.07523e-20)
(15.8405 3.40358 0)
(15.5939 3.35498 -1.05776e-19)
(15.3534 3.26951 1.10299e-19)
(15.1462 3.17765 -1.55615e-19)
(15.4727 2.23263 2.02006e-19)
(15.4676 2.22193 -2.90579e-20)
(15.4594 2.2337 1.55714e-20)
(15.4424 2.24191 8.09321e-20)
(15.4291 2.24221 1.71595e-19)
(15.4178 2.23443 5.0577e-19)
(15.4212 2.21053 6.2605e-19)
(15.4479 2.17388 0)
(15.508 2.13313 5.70855e-19)
(15.6036 2.10417 -4.54399e-19)
(15.7334 2.10526 -6.34313e-19)
(15.8904 2.14897 4.17408e-19)
(16.0637 2.24085 0)
(16.2428 2.38703 -1.12178e-19)
(16.3924 2.58414 2.72272e-20)
(16.4821 2.82226 2.23098e-20)
(16.4743 3.08352 -3.49664e-20)
(16.356 3.34062 -5.80679e-20)
(16.1374 3.53311 2.31243e-19)
(15.8325 3.59891 -1.52044e-19)
(15.4984 3.59415 0)
(15.2278 3.59073 3.26161e-19)
(14.9974 3.57421 -4.51377e-19)
(15.473 2.23297 0)
(15.4676 2.22228 1.15836e-20)
(15.4596 2.23424 -1.55945e-20)
(15.4425 2.24293 -8.10378e-20)
(15.4289 2.24369 -8.72481e-23)
(15.4172 2.23627 1.9857e-22)
(15.42 2.21214 -3.0642e-19)
(15.4462 2.17426 0)
(15.5063 2.13094 -5.71077e-19)
(15.6032 2.09808 -9.97662e-21)
(15.7362 2.09415 0)
(15.8992 2.1323 -2.22966e-19)
(16.0817 2.21858 0)
(16.2763 2.36207 5.38919e-21)
(16.447 2.56388 -7.92303e-20)
(16.5648 2.82172 -2.1429e-20)
(16.5875 3.12757 -3.84556e-20)
(16.4866 3.44893 1.75922e-19)
(16.2418 3.70062 -1.08728e-19)
(15.886 3.85293 -2.20546e-19)
(15.5604 4.02589 3.45749e-19)
(15.3344 4.21929 -3.33414e-19)
(15.1032 4.34188 1.09024e-18)
(15.4734 2.23327 1.95805e-19)
(15.4676 2.22262 1.70102e-20)
(15.4598 2.23476 1.69293e-21)
(15.4425 2.24394 -6.24611e-23)
(15.4288 2.24518 2.20758e-22)
(15.4167 2.23813 -5.91977e-22)
(15.4189 2.21381 -3.19831e-19)
(15.4444 2.17473 2.63843e-21)
(15.5045 2.12883 -2.03519e-21)
(15.6026 2.09196 -1.02636e-20)
(15.7385 2.08277 -3.42187e-19)
(15.9074 2.11491 2.16183e-19)
(16.0992 2.19468 8.71209e-21)
(16.31 2.33391 -5.91954e-21)
(16.5046 2.53796 4.56351e-20)
(16.6573 2.81269 0)
(16.7214 3.15947 -5.31135e-20)
(16.6487 3.53961 -1.25169e-19)
(16.412 3.87467 1.54844e-19)
(16.1136 4.21135 -4.37877e-19)
(15.9114 4.66339 2.19544e-19)
(15.7389 5.08072 -6.03832e-20)
(15.4607 5.32695 -7.01323e-19)
(15.4737 2.23352 -3.89414e-19)
(15.4677 2.22293 -1.70171e-20)
(15.46 2.23525 -3.01073e-21)
(15.4426 2.24493 0)
(15.4287 2.24666 0)
(15.4161 2.24001 -2.80822e-19)
(15.4177 2.21553 -3.32633e-19)
(15.4426 2.17527 0)
(15.5026 2.12678 -2.64095e-21)
(15.6017 2.08582 4.78528e-19)
(15.7403 2.07114 3.47781e-19)
(15.915 2.09683 -7.20494e-21)
(16.1159 2.16909 -7.81521e-21)
(16.3435 2.30224 1.66573e-20)
(16.5643 2.50526 -8.47698e-21)
(16.758 2.79167 0)
(16.8735 3.17068 6.19065e-20)
(16.85 3.60413 -3.72094e-20)
(16.695 4.05522 4.07213e-19)
(16.5772 4.63166 -1.97108e-19)
(16.5345 5.33742 -3.89154e-19)
(16.3341 5.88999 5.72682e-19)
(15.9155 6.17708 0)
(15.4741 2.23374 3.84868e-19)
(15.4677 2.22322 -4.9611e-24)
(15.4602 2.23573 1.32769e-21)
(15.4427 2.24591 0)
(15.4285 2.24815 0)
(15.4156 2.24192 -6.38408e-21)
(15.4165 2.21732 6.71458e-19)
(15.4408 2.17591 0)
(15.5005 2.12481 3.08166e-19)
(15.6005 2.07967 0)
(15.7417 2.05927 0)
(15.9219 2.07807 -7.29506e-21)
(16.1317 2.14178 9.43782e-21)
(16.3764 2.26682 7.47973e-20)
(16.625 2.46474 9.51576e-21)
(16.8644 2.75518 1.20265e-20)
(17.041 3.15399 -6.53057e-20)
(17.0991 3.63401 0)
(17.11 4.21376 -1.29327e-19)
(17.2371 4.9976 0)
(17.2882 5.82976 -8.50462e-20)
(16.9387 6.38748 -1.23377e-19)
(16.2904 6.62872 0)
(15.4744 2.23391 -2.85835e-19)
(15.4677 2.22349 -1.22993e-20)
(15.4604 2.23618 0)
(15.4428 2.24687 5.69421e-20)
(15.4284 2.24964 -1.06834e-19)
(15.4151 2.24386 2.87798e-19)
(15.4153 2.21916 -3.39356e-19)
(15.4389 2.17663 -3.51407e-19)
(15.4982 2.12292 -3.06129e-19)
(15.599 2.07353 -4.17688e-21)
(15.7426 2.04719 5.44922e-21)
(15.928 2.05864 2.55355e-19)
(16.1463 2.11276 8.84916e-21)
(16.4079 2.22745 -1.01873e-19)
(16.6855 2.41551 1.07474e-20)
(16.9732 2.70041 0)
(17.2204 3.10389 0)
(17.3959 3.61737 0)
(17.6316 4.30111 0)
(17.9862 5.19445 4.88126e-20)
(18.0117 6.01488 4.15886e-19)
(17.4035 6.48733 -3.84472e-19)
(16.4649 6.63791 0)
(15.4747 2.23404 9.45422e-20)
(15.4678 2.22374 2.58055e-20)
(15.4606 2.23661 0)
(15.4429 2.24782 -5.70148e-20)
(15.4284 2.25112 2.17302e-19)
(15.4146 2.24582 0)
(15.4141 2.22106 0)
(15.4369 2.17745 3.49893e-19)
(15.4958 2.12112 0)
(15.5972 2.06741 -2.54731e-19)
(15.7429 2.03491 -1.94856e-19)
(15.9333 2.0386 -1.23343e-19)
(16.1596 2.08206 1.64756e-19)
(16.4376 2.18408 0)
(16.7439 2.35705 0)
(17.0809 2.62552 -5.6751e-21)
(17.4064 3.01635 7.12543e-21)
(17.7268 3.53986 0)
(18.2031 4.2706 4.49133e-20)
(18.7128 5.16148 -4.80765e-20)
(18.5976 5.87574 -3.13006e-19)
(17.6652 6.23106 3.94308e-19)
(16.4127 6.29107 0)
(15.475 2.23414 -3.21173e-24)
(15.4678 2.22397 -2.81848e-20)
(15.4608 2.23702 -1.44923e-23)
(15.443 2.24876 -3.1684e-20)
(15.4283 2.25261 -1.10473e-19)
(15.4141 2.2478 1.53646e-19)
(15.4129 2.22303 5.66979e-22)
(15.4349 2.17836 -1.82873e-19)
(15.4932 2.11942 3.30632e-19)
(15.5951 2.06131 2.55346e-19)
(15.7427 2.02245 1.89328e-19)
(15.9377 2.01798 -1.32017e-19)
(16.1713 2.04977 -1.64718e-19)
(16.4646 2.13676 -1.07609e-20)
(16.7986 2.28924 1.37763e-20)
(17.1834 2.5299 -8.99477e-22)
(17.5908 2.88889 1.12702e-21)
(18.0672 3.38916 0)
(18.7614 4.09605 -4.44724e-20)
(19.339 4.89514 0)
(19.0084 5.46445 3.16669e-20)
(17.7364 5.7186 0)
(16.1798 5.71937 1.26514e-20)
(15.4753 2.23419 -4.57513e-20)
(15.4679 2.22418 1.46832e-20)
(15.461 2.23741 8.10426e-21)
(15.4432 2.24968 -1.49553e-21)
(15.4283 2.25409 -1.66082e-22)
(15.4136 2.24981 3.77728e-21)
(15.4117 2.22506 -1.82339e-19)
(15.4328 2.17937 -4.2774e-21)
(15.4905 2.11782 -3.25651e-19)
(15.5927 2.05526 -4.47716e-21)
(15.7419 2.00985 2.04439e-19)
(15.941 1.99683 0)
(16.1813 2.016 -1.07228e-20)
(16.4884 2.0857 1.37751e-20)
(16.8477 2.21242 3.09314e-20)
(17.2762 2.41407 0)
(17.763 2.72114 0)
(18.3878 3.15947 3.94543e-21)
(19.2524 3.7742 0)
(19.8219 4.42176 -9.56822e-20)
(19.2454 4.83862 1.08965e-19)
(17.6639 5.02166 -8.51328e-21)
(15.8385 5.00454 -3.7361e-19)
(15.4756 2.23421 9.1079e-20)
(15.4679 2.22437 -8.50119e-21)
(15.4612 2.23778 -1.2891e-20)
(15.4433 2.25058 3.35301e-20)
(15.4282 2.25557 6.01621e-20)
(15.4132 2.25184 -2.37903e-19)
(15.4105 2.22714 1.82736e-19)
(15.4306 2.18048 1.82596e-19)
(15.4876 2.11632 5.29021e-21)
(15.59 2.04926 -3.90094e-21)
(15.7405 1.99714 -1.98663e-19)
(15.9433 1.97522 -7.26974e-20)
(16.1893 1.98092 8.33814e-20)
(16.5081 2.03125 7.48464e-20)
(16.8894 2.12739 -3.09151e-20)
(17.3551 2.27983 0)
(17.9112 2.51566 0)
(18.6598 2.85396 -6.89008e-21)
(19.6359 3.31973 -3.781e-21)
(20.1436 3.77929 0)
(19.3361 4.05756 1.0464e-20)