/*--------------------------------*- C++ -*----------------------------------*\
  =========                 |
  \\      /  F ield         | OpenFOAM: The Open Source CFD Toolbox
   \\    /   O peration     | Website:  https://openfoam.org
    \\  /    A nd           | Version:  7
     \\/     M anipulation  |
\*---------------------------------------------------------------------------*/
FoamFile
{
    version     2.0;
    format      ascii;
    class       volScalarField;
    location    "50";
    object      yPlus;
}
// * * * * * * * * * * * * * * * * * * * * * * * * * * * * * * * * * * * * * //

dimensions      [0 0 0 0 0 0 0];

internalField   uniform 0;

boundaryField
{
    inlet
    {
        type            calculated;
        value           uniform 0;
    }
    outlet
    {
        type            calculated;
        value           uniform 0;
    }
    suction_side
    {
        type            calculated;
        value           nonuniform List<scalar> 
56
(
6.30297
6.4648
6.93307
7.06155
7.77601
7.93293
9.10263
9.2851
11.0789
11.1061
14.1574
15.8897
25.1612
34.7356
42.2797
45.1826
43.046
38.579
31.063
28.8147
35.6463
39.8146
41.315
40.5252
38.4549
35.7009
32.108
28.9232
26.5954
24.102
20.7542
19.582
20.6242
20.8277
20.9738
21.3948
22.3295
23.5645
27.3265
33.0294
35.9493
36.6565
27.1882
17.9732
17.3476
21.5968
23.7747
24.5215
23.0514
20.1661
18.4306
19.8951
20.53
20.0994
20.1023
19.6948
)
;
    }
    pressure_side
    {
        type            calculated;
        value           nonuniform List<scalar> 
56
(
44.0977
42.6006
41.8804
41.2506
40.744
39.7312
39.0739
38.4235
37.9536
37.7328
37.5681
37.5279
37.5418
37.5811
37.6361
37.6948
37.7603
37.8398
37.9338
38.0377
38.1479
38.2536
38.3397
38.3744
38.3157
38.165
38.0039
37.9339
38.0811
38.5841
39.5145
40.799
42.214
43.353
43.9075
43.9388
43.0018
41.2559
38.6475
35.0121
30.4046
25.0138
19.1805
13.0552
8.47794
7.29315
5.64376
5.13628
4.90439
4.87028
5.0088
5.18992
5.40967
5.78829
5.93131
6.14321
)
;
    }
    trailing_edge
    {
        type            calculated;
        value           nonuniform List<scalar> 2(139.278 82.2679);
    }
    defaultFaces
    {
        type            empty;
    }
}


// ************************************************************************* //
