/*--------------------------------*- C++ -*----------------------------------*\
  =========                 |
  \\      /  F ield         | OpenFOAM: The Open Source CFD Toolbox
   \\    /   O peration     | Website:  https://openfoam.org
    \\  /    A nd           | Version:  7
     \\/     M anipulation  |
\*---------------------------------------------------------------------------*/
FoamFile
{
    version     2.0;
    format      ascii;
    class       volScalarField;
    location    "79";
    object      k;
}
// * * * * * * * * * * * * * * * * * * * * * * * * * * * * * * * * * * * * * //

dimensions      [0 2 -2 0 0 0 0];

internalField   nonuniform List<scalar> 
12842
(
0.00570617
0.00510087
0.00474252
0.00449007
0.0043263
0.00419238
0.00410854
0.00403841
0.00399245
0.00396264
0.00393809
0.00393742
0.00394755
0.00397257
0.00400627
0.00403254
0.0040483
0.00407946
0.00409417
0.00411
0.00411792
0.00412421
0.00412718
0.0056655
0.00508
0.00471578
0.0044589
0.00431193
0.00418704
0.00410654
0.00403708
0.00399115
0.00396104
0.00393591
0.00393645
0.00394787
0.00397381
0.00400483
0.00403493
0.00405178
0.0040793
0.00409132
0.00410987
0.00411673
0.00412327
0.00412797
0.00564275
0.00500177
0.00466765
0.00443037
0.00427844
0.00415737
0.00408522
0.00402046
0.00397958
0.00395064
0.00392902
0.00393196
0.00394656
0.00397552
0.00400781
0.00403473
0.00405412
0.00407868
0.00409572
0.00410678
0.00411755
0.00412351
0.00412521
0.0055938
0.00496264
0.00460136
0.00437467
0.00424537
0.00414098
0.00407456
0.00401242
0.00397408
0.00394589
0.00392599
0.00392996
0.00394704
0.00397978
0.0040122
0.00403178
0.00406137
0.00407855
0.00409494
0.00410996
0.00411597
0.00412302
0.00412773
0.00555642
0.0048841
0.00455188
0.00433237
0.00421103
0.00410681
0.00404823
0.00399215
0.0039601
0.00393412
0.003919
0.00392526
0.00394689
0.00398236
0.00401714
0.00403515
0.00406161
0.00408115
0.00409338
0.00410933
0.00411662
0.00412027
0.00412612
0.00549833
0.00485127
0.00449417
0.00427939
0.0041702
0.00408669
0.00403592
0.00398301
0.00395365
0.00392873
0.00391572
0.00392297
0.00394741
0.00398579
0.0040208
0.00404124
0.00405579
0.00408232
0.00409367
0.00410719
0.00411851
0.00412218
0.00412502
0.00545554
0.004775
0.00445602
0.00424958
0.00414452
0.0040582
0.00401139
0.00396411
0.00394007
0.00391755
0.00390924
0.00391849
0.00394675
0.00398946
0.00403232
0.0040461
0.00407224
0.00409282
0.00409808
0.00411143
0.00412007
0.00412055
0.00412349
0.00540153
0.00474276
0.00440428
0.00420599
0.00411151
0.00403862
0.00399987
0.00395623
0.00393421
0.00391247
0.00390588
0.00391548
0.00394649
0.00399377
0.00403094
0.0040589
0.00406872
0.00409154
0.00409732
0.00411226
0.00411964
0.00412198
0.00412516
0.00535745
0.00468036
0.00437526
0.00418311
0.00409363
0.00402012
0.00398298
0.00394186
0.00392385
0.00390397
0.00390037
0.00391121
0.0039453
0.00399707
0.00404066
0.00405906
0.00406299
0.00409154
0.00409832
0.00411017
0.00411668
0.00412289
0.00412916
0.00529983
0.00464196
0.00432988
0.00414968
0.00406861
0.00400364
0.00397247
0.00393611
0.00391848
0.00389968
0.00389752
0.00390895
0.00394527
0.00399623
0.00404051
0.00406288
0.00406404
0.0040902
0.0040991
0.00411125
0.0041176
0.00412748
0.0041362
0.00524976
0.00458746
0.00430364
0.00412987
0.00405402
0.00399016
0.00396191
0.0039255
0.00391181
0.00389401
0.00389365
0.00390575
0.00394599
0.00400577
0.00404451
0.00406221
0.00406315
0.00408703
0.00410152
0.00411521
0.00412108
0.00413151
0.00414083
0.00519253
0.00454862
0.00426551
0.00410176
0.00403237
0.00397515
0.00395163
0.00391971
0.00390597
0.00389014
0.00389139
0.00390557
0.00394692
0.00399837
0.00404626
0.00406466
0.00406496
0.00408836
0.00410324
0.00412081
0.00412889
0.00414105
0.00415081
0.00514271
0.00450549
0.00424248
0.00408378
0.00401869
0.00396335
0.0039433
0.00391131
0.00390081
0.00388537
0.00388822
0.0039048
0.00394696
0.00399997
0.00404841
0.00405526
0.00406667
0.00409173
0.00410895
0.00412783
0.00413566
0.00415074
0.00415964
0.00508854
0.00446919
0.00421115
0.00406076
0.00399984
0.00395105
0.00393394
0.00390509
0.00389498
0.00388176
0.00388613
0.00390431
0.00395411
0.00399799
0.00404642
0.00406396
0.00406985
0.00409958
0.00411303
0.0041372
0.00414796
0.00416452
0.00417454
0.00504147
0.0044357
0.00419067
0.00404422
0.00398729
0.00394094
0.00392694
0.00389835
0.00389027
0.00387739
0.00388321
0.00390455
0.00394956
0.00399902
0.00404854
0.0040587
0.0040734
0.00410486
0.00412274
0.00414799
0.00415917
0.0041811
0.00419309
0.00499232
0.00440365
0.00416471
0.00402581
0.00397092
0.0039311
0.00391901
0.0038914
0.00388462
0.00387386
0.00388114
0.00390497
0.0039564
0.00400463
0.00404856
0.00405638
0.0040802
0.0041171
0.00413079
0.00416224
0.00417719
0.00420124
0.00421803
0.00495009
0.00437635
0.00414573
0.00401088
0.00395949
0.00392311
0.00391291
0.00388594
0.00388011
0.0038699
0.00387842
0.00390537
0.00395209
0.00400958
0.00404279
0.00405983
0.00408677
0.00412521
0.00414592
0.00418082
0.0041963
0.00422805
0.00425207
0.0049073
0.00434928
0.00412361
0.00399612
0.00394566
0.00391516
0.00390548
0.00387887
0.00387463
0.00386652
0.0038765
0.00390553
0.00395311
0.00401762
0.0040406
0.00406417
0.00409738
0.00414458
0.00416081
0.00420312
0.00422316
0.00425912
0.00429191
0.0048711
0.00432521
0.00410551
0.00398288
0.00393516
0.00390873
0.00389982
0.00387423
0.00387055
0.00386304
0.00387427
0.00390649
0.00395824
0.00402601
0.0040426
0.00407256
0.00410985
0.00415638
0.00418483
0.00423357
0.00425678
0.00430458
0.00434759
0.00483532
0.00430328
0.00408656
0.00397079
0.00392378
0.0039023
0.00389185
0.00386793
0.00386549
0.00386011
0.00387283
0.00390668
0.00395988
0.00403608
0.00404618
0.00407956
0.00412334
0.00418601
0.0042111
0.0042678
0.00429664
0.00435474
0.00441187
0.00480519
0.00428119
0.00406913
0.00395897
0.00391411
0.00389617
0.00388608
0.00386361
0.00386139
0.00385706
0.00387129
0.00390549
0.00397493
0.0040447
0.00405498
0.00409618
0.00414571
0.00420406
0.00424808
0.00431544
0.00435476
0.00442828
0.00449792
0.00477705
0.0042644
0.00405327
0.00394832
0.00390507
0.00389023
0.00387754
0.00385821
0.00385705
0.00385486
0.0038703
0.00390914
0.003979
0.00405553
0.00406138
0.0041074
0.00416484
0.00424821
0.00429233
0.00436866
0.00441889
0.00451463
0.00460751
0.00475405
0.00424384
0.00403656
0.00393751
0.0038961
0.00388381
0.00387157
0.00385403
0.00385268
0.00385227
0.00386901
0.00390953
0.00398539
0.00407249
0.0040753
0.00413442
0.00419975
0.00427957
0.00434953
0.00444526
0.00451842
0.00463565
0.004743
0.00473559
0.00423375
0.00402611
0.00393034
0.00389103
0.00387932
0.00386416
0.00385018
0.00384957
0.00385108
0.00386808
0.00390803
0.00398046
0.00409215
0.00408562
0.00415374
0.00423498
0.00434868
0.00442166
0.00452945
0.00461946
0.00476972
0.00490737
0.00472156
0.00422042
0.00401623
0.00392473
0.003888
0.0038754
0.00385985
0.00384817
0.00384726
0.0038501
0.0038672
0.00390766
0.00397611
0.00409572
0.0041059
0.00419461
0.00428597
0.00441089
0.00450972
0.00464824
0.00477678
0.00495748
0.00510855
0.00470865
0.00421416
0.0040102
0.00392058
0.00388534
0.00387177
0.00385481
0.00384537
0.00384555
0.00384923
0.00386567
0.00391227
0.003983
0.00409684
0.00412902
0.00423246
0.00435409
0.00451272
0.00462401
0.00478332
0.00493531
0.00515178
0.00532846
0.00469499
0.00420158
0.00400198
0.00391546
0.00388299
0.00386702
0.00385077
0.00384357
0.00384324
0.00384777
0.00386547
0.00391335
0.00398219
0.00409406
0.00416532
0.00429388
0.00442405
0.00460786
0.00474622
0.00494373
0.00514284
0.00539475
0.00558247
0.0046833
0.00419558
0.00399634
0.00391168
0.00388025
0.00386298
0.00384639
0.00383996
0.00384082
0.00384602
0.00386531
0.00391292
0.00398803
0.00411425
0.00421178
0.00436403
0.00453696
0.00475411
0.0049142
0.00513778
0.00536527
0.00564579
0.00584367
0.00467001
0.00418324
0.00399003
0.00390705
0.00387806
0.00385759
0.00384301
0.00383772
0.00383744
0.00384373
0.0038652
0.00391587
0.00400193
0.00414373
0.00427552
0.00445415
0.00463523
0.0048828
0.00507279
0.00534226
0.00561322
0.00591525
0.00611207
0.00465962
0.00417725
0.00398491
0.00390365
0.00387487
0.00385432
0.00383964
0.0038333
0.00383398
0.00384157
0.0038652
0.0039207
0.00403315
0.00420061
0.00435341
0.00456123
0.0047886
0.00506522
0.00528831
0.00557737
0.00586231
0.00617235
0.00636484
0.0046469
0.00416486
0.00397878
0.00389933
0.00387204
0.00384894
0.00383628
0.00382912
0.00383005
0.00383933
0.00386608
0.00393471
0.00407351
0.00426271
0.00445552
0.00469051
0.00492514
0.00522353
0.00546602
0.00579272
0.00610906
0.00642135
0.00660478
0.00463782
0.00415875
0.00397495
0.00389597
0.00386829
0.0038459
0.00383321
0.00382531
0.00382661
0.00383874
0.00387613
0.00397109
0.00413183
0.00435558
0.00456758
0.00482403
0.0050949
0.00541167
0.00568869
0.00603086
0.00634247
0.00664902
0.00682344
0.0046259
0.00414603
0.00396788
0.00389187
0.00386456
0.00384067
0.0038287
0.00382089
0.00382372
0.00383903
0.00389494
0.00401212
0.00420252
0.00445292
0.00470694
0.00499225
0.00526995
0.00560023
0.00588114
0.00623437
0.00655966
0.00685681
0.00701919
0.00461799
0.00413979
0.00396417
0.0038887
0.00385966
0.00383583
0.00382533
0.00381712
0.00382406
0.00384694
0.00393321
0.00407813
0.00428944
0.00458058
0.00484992
0.00513974
0.00543536
0.0057684
0.00607582
0.00644613
0.00676015
0.00704372
0.0071928
0.004607
0.00412695
0.0039574
0.0038846
0.00385415
0.00383009
0.00381983
0.00381615
0.00382707
0.00386543
0.00397658
0.00414388
0.0043867
0.00470789
0.00501101
0.0053247
0.00562614
0.00597002
0.00627574
0.00662945
0.00693797
0.00720476
0.00734087
0.00460025
0.00412073
0.00395227
0.00388071
0.00384797
0.0038257
0.0038175
0.00381856
0.00384311
0.00390172
0.00404186
0.00423665
0.00450121
0.00486421
0.00517914
0.00548815
0.00579132
0.00611878
0.00643017
0.00680327
0.00710004
0.00734818
0.00747189
0.0045899
0.00410804
0.00394528
0.00387513
0.00384065
0.00381978
0.00381378
0.00382844
0.00387046
0.00394825
0.00410888
0.00432296
0.00461597
0.00500989
0.00534159
0.00565417
0.00595824
0.00630123
0.00662458
0.00696327
0.0072432
0.0074706
0.00757378
0.00458461
0.00410178
0.00393823
0.00386924
0.00383475
0.00381759
0.003814
0.00385357
0.00391418
0.0040126
0.00419746
0.00443698
0.00475343
0.00518539
0.00552497
0.00583717
0.00613602
0.00644651
0.00674568
0.00710255
0.00737332
0.00756021
0.00763867
0.00457497
0.00408917
0.00392939
0.00386193
0.00382721
0.00381583
0.00381774
0.00388915
0.00396864
0.00408516
0.00428487
0.00453844
0.0048762
0.00533528
0.00567437
0.00596764
0.00626104
0.00659095
0.00691584
0.00723648
0.00746918
0.0076092
0.00767155
0.0045705
0.00408192
0.00391989
0.00385479
0.00382545
0.00382
0.00383519
0.00394084
0.00403757
0.00417294
0.00439099
0.00466606
0.00502738
0.00551929
0.00586013
0.0061523
0.00643577
0.00672731
0.00701787
0.00733919
0.00752466
0.00763773
0.0077023
0.00456172
0.00406905
0.0039118
0.00384841
0.00382137
0.00383091
0.00386452
0.00400156
0.00411536
0.00426594
0.00449307
0.004776
0.00515135
0.0056602
0.00598901
0.0062587
0.00653698
0.00685832
0.00716068
0.0074116
0.0075589
0.00768408
0.00776928
0.00455755
0.00405928
0.00390066
0.00384332
0.00382569
0.00386056
0.00391203
0.0040761
0.0042043
0.00437022
0.00460964
0.0049092
0.00530481
0.00584024
0.00616651
0.00642425
0.0066908
0.00696575
0.00722735
0.00745837
0.00761873
0.00779102
0.00801301
0.00454863
0.00404706
0.00389508
0.00384434
0.00383644
0.00389848
0.00396875
0.00415715
0.00429892
0.00447615
0.00471879
0.00502031
0.00542534
0.00596458
0.0062735
0.00651473
0.0067734
0.00708097
0.00735226
0.00752437
0.00774339
0.00822533
0.00948618
0.00454421
0.00403532
0.00388743
0.00385124
0.00386459
0.00395418
0.00404242
0.00424828
0.00440103
0.00458895
0.00483821
0.00515188
0.00557182
0.00612814
0.00643491
0.00666602
0.00691913
0.00715942
0.00741702
0.00763889
0.00831059
0.0115749
0.0260217
0.00453484
0.00402613
0.00388712
0.00386983
0.0039018
0.00401717
0.00412192
0.00434288
0.00450489
0.00469945
0.00494674
0.00525807
0.00568484
0.00623241
0.00652459
0.00674006
0.00698807
0.00723067
0.00776139
0.00845007
0.0126516
0.0400061
0.113675
0.00452955
0.00401692
0.00388718
0.00390055
0.00395474
0.00409478
0.00421402
0.00444339
0.00461252
0.00481262
0.00506188
0.00538197
0.00581964
0.00637631
0.00666824
0.00688068
0.0071367
0.00738886
0.00810457
0.0114681
0.0376148
0.146911
0.267129
0.00451992
0.00400628
0.00389846
0.00394317
0.00401605
0.00417669
0.0043079
0.00454376
0.00471778
0.00491979
0.00516339
0.00547913
0.00592145
0.00646039
0.00674351
0.0069485
0.00721554
0.00767464
0.0115054
0.0324557
0.129445
0.326418
0.420366
0.00451205
0.00400431
0.00391936
0.00399729
0.00408847
0.00426776
0.00440862
0.00464556
0.00482266
0.00502551
0.00526834
0.00559126
0.00604377
0.0065897
0.0068773
0.00709298
0.0075237
0.00941224
0.0200568
0.0828963
0.2658
0.469509
0.53734
0.00450027
0.00399941
0.00395005
0.00406089
0.00416838
0.00436288
0.00451034
0.00474694
0.00492521
0.00512591
0.00536078
0.00567862
0.0061328
0.00665705
0.00694676
0.00717718
0.00783761
0.0121898
0.0442064
0.169612
0.436354
0.587234
0.622656
0.00449175
0.00400523
0.00399573
0.00413763
0.00425937
0.00446572
0.00461816
0.00485011
0.0050277
0.00522505
0.00545701
0.00578023
0.00624468
0.00676954
0.00707145
0.00739316
0.00902227
0.0207646
0.0792091
0.270864
0.564219
0.65986
0.671437
0.00448005
0.00401909
0.0040494
0.00422167
0.00435434
0.0045694
0.00472248
0.0049482
0.0051233
0.0053149
0.00553818
0.00585679
0.00632046
0.00682677
0.00713451
0.00754912
0.0100197
0.0275941
0.119265
0.379412
0.659395
0.718054
0.705663
0.00447559
0.00404946
0.00411576
0.00431115
0.00445249
0.00467107
0.00482369
0.00504031
0.00521154
0.00539691
0.00561623
0.00593864
0.0064112
0.00691273
0.0072414
0.00788793
0.0121405
0.0403331
0.164019
0.464562
0.72985
0.768242
0.742357
0.0044703
0.00408957
0.00418658
0.00440378
0.00455
0.00477008
0.0049194
0.00512609
0.00529186
0.00546981
0.00568203
0.0060025
0.00647747
0.0069672
0.00730115
0.00809412
0.0134401
0.0477131
0.190697
0.530616
0.787422
0.813719
0.788716
0.00447021
0.00414382
0.00426569
0.00449772
0.00464763
0.00486447
0.00501112
0.00520493
0.00536432
0.00553489
0.00574334
0.00606733
0.00655046
0.00703796
0.00740386
0.00848233
0.0157737
0.0588862
0.223864
0.584377
0.838267
0.857714
0.831005
0.00447369
0.00420636
0.00434764
0.00459082
0.00474175
0.00495315
0.00509654
0.00527669
0.00542869
0.00559172
0.00579518
0.0061201
0.0066096
0.00709363
0.00747145
0.00872742
0.017212
0.06523
0.239074
0.617835
0.880308
0.902724
0.876938
0.0044881
0.00428046
0.00443452
0.00468401
0.00483469
0.00503719
0.00517756
0.00534219
0.00548652
0.00564235
0.00584323
0.00617282
0.00667354
0.00716211
0.00758391
0.00919344
0.0199915
0.0762597
0.264505
0.643046
0.919372
0.937022
0.915965
0.004512
0.00435742
0.00451875
0.00476829
0.00491617
0.00510816
0.00524409
0.00539525
0.00553265
0.00568226
0.00588011
0.00621305
0.00672433
0.00721735
0.00768539
0.00956974
0.0222703
0.084373
0.273619
0.647535
0.938697
0.968332
0.953481
0.00454222
0.00443559
0.00459964
0.00484761
0.00499108
0.00517235
0.00530324
0.00544216
0.00557376
0.0057177
0.00591387
0.00625129
0.00677495
0.00727491
0.00778501
0.0099723
0.0246595
0.0948632
0.292186
0.637577
0.947104
0.997821
0.986925
0.00457764
0.0045161
0.00468165
0.00492309
0.00506088
0.00523065
0.00535504
0.00548386
0.00561036
0.00574953
0.00594391
0.00628722
0.00682588
0.00733383
0.00789471
0.0103954
0.0271279
0.102561
0.304846
0.637962
0.942191
1.03101
1.01878
0.004618
0.00459749
0.00476077
0.00499548
0.00512451
0.00528306
0.00539985
0.00551997
0.00564294
0.00577808
0.00597198
0.00632201
0.00687714
0.00739413
0.00797861
0.0106298
0.0286884
0.111146
0.312407
0.642238
0.939947
1.03801
1.05434
0.00466237
0.00467805
0.00483971
0.00506279
0.00518275
0.00533
0.00543797
0.00555199
0.00567194
0.0058036
0.00599676
0.0063552
0.00692869
0.00745476
0.00807835
0.0109013
0.0301534
0.11667
0.315419
0.631144
0.95015
1.0448
1.07825
0.00470886
0.00475667
0.00491364
0.00512656
0.00523438
0.00537122
0.00547059
0.0055789
0.00569747
0.005827
0.00602022
0.00638726
0.00697991
0.00751476
0.00814834
0.0110311
0.0310812
0.120301
0.319691
0.630272
0.940646
1.05162
1.0967
0.00475847
0.00483187
0.00498619
0.0051848
0.00528139
0.00540814
0.00549802
0.00560308
0.00572026
0.00584755
0.00604077
0.00641808
0.00703046
0.0075736
0.00824768
0.0113601
0.0325423
0.122176
0.314543
0.633097
0.936038
1.05222
1.09598
0.00480772
0.00490339
0.00505229
0.00523922
0.00532263
0.0054403
0.00552245
0.0056233
0.0057403
0.0058665
0.00606013
0.00644732
0.00707939
0.0076294
0.00835688
0.0118613
0.0348853
0.125775
0.31862
0.61986
0.932983
1.05289
1.10711
0.00485884
0.00496964
0.00511564
0.00528806
0.00535999
0.00546929
0.0055432
0.00564163
0.00575773
0.0058837
0.00607743
0.00647538
0.00712644
0.00768453
0.00850777
0.0127714
0.0376223
0.125232
0.32022
0.61753
0.936837
1.05224
1.09723
0.00490825
0.00503127
0.00517228
0.00533316
0.00539329
0.00549498
0.00556288
0.00565769
0.00577387
0.00589827
0.00609273
0.00650139
0.00717035
0.00773689
0.00872038
0.0139673
0.0412879
0.125776
0.31518
0.618575
0.939985
1.05156
1.10316
0.00495805
0.00508719
0.00522516
0.00537335
0.00542333
0.00551847
0.00558043
0.00567214
0.00578669
0.00591259
0.00610745
0.00652609
0.00721149
0.00779023
0.0089549
0.0151097
0.0436205
0.126232
0.317211
0.603304
0.921955
1.05069
1.09889
0.00500556
0.00513833
0.00527164
0.00540965
0.00545048
0.00553978
0.00559727
0.00568587
0.0057999
0.00592531
0.00611912
0.00654878
0.00724916
0.00784123
0.00923257
0.0163218
0.0446896
0.127183
0.316999
0.600129
0.918948
1.04662
1.10061
0.00505233
0.00518365
0.00531466
0.0054428
0.00547568
0.00555988
0.00561368
0.00569815
0.00580959
0.00593595
0.00613134
0.00656904
0.00728334
0.00789165
0.00946245
0.017027
0.0459468
0.129074
0.315919
0.600766
0.887172
1.01033
1.09467
0.00509725
0.00522622
0.00535168
0.00547168
0.00549797
0.00557838
0.00562865
0.00571063
0.00581976
0.00594826
0.00614066
0.00658921
0.00731518
0.00793509
0.00965097
0.0174895
0.04581
0.130063
0.316631
0.583478
0.835447
0.951088
1.05557
0.00513936
0.00526186
0.00538623
0.0054991
0.00551995
0.00559644
0.00564451
0.0057221
0.00582825
0.00595583
0.00615135
0.00660603
0.0073438
0.00797722
0.00975185
0.0175056
0.0467111
0.127394
0.321428
0.554298
0.770058
0.875739
0.991639
0.00518212
0.00529762
0.00541634
0.00552315
0.00553925
0.00561332
0.00565833
0.00573346
0.0058355
0.00596054
0.00615955
0.00662358
0.00736879
0.00800171
0.00981193
0.0175723
0.0461511
0.128042
0.320336
0.517019
0.696234
0.79015
0.909446
0.00521966
0.00532749
0.00544398
0.00554534
0.0055584
0.00563013
0.00567325
0.00574532
0.00584308
0.00596091
0.00616531
0.00663937
0.00739328
0.00801671
0.00981077
0.0178519
0.0464047
0.128651
0.31055
0.474099
0.618136
0.699135
0.813859
0.0052582
0.00535645
0.00546997
0.00556723
0.00557713
0.00564616
0.00568718
0.00575562
0.00584951
0.00596189
0.00616875
0.00665323
0.00740971
0.0080188
0.00981465
0.0177765
0.0462646
0.12547
0.294379
0.427539
0.539384
0.606917
0.709946
0.00529401
0.00538488
0.00549341
0.005585
0.00559342
0.00566204
0.00569999
0.00576711
0.00585479
0.00596415
0.00617064
0.00666292
0.00742199
0.00802072
0.00981714
0.0178502
0.0462677
0.124825
0.272927
0.379268
0.46278
0.516718
0.603435
0.00532504
0.00540799
0.00551461
0.00560487
0.00561274
0.00567699
0.00571483
0.00577801
0.00586172
0.00596432
0.00617071
0.0066686
0.00742423
0.00802201
0.00981678
0.0175689
0.0443486
0.118412
0.247303
0.330864
0.390517
0.431532
0.500187
0.00536006
0.00543494
0.00553823
0.00562061
0.00562629
0.0056921
0.00572593
0.00578758
0.00586722
0.00596495
0.00617333
0.00666936
0.00742635
0.00802179
0.00973543
0.0168456
0.0410581
0.108252
0.219011
0.283802
0.324256
0.353636
0.404591
0.00538775
0.00545679
0.00555556
0.00563873
0.00564719
0.00570688
0.00574025
0.00579955
0.00586814
0.00596507
0.00617229
0.0066698
0.00742835
0.00800656
0.00958111
0.0158612
0.0370055
0.0960445
0.189873
0.239184
0.264996
0.284762
0.320215
0.00542168
0.00548185
0.00557989
0.0056542
0.00565931
0.00572065
0.00575309
0.00581072
0.00587287
0.00596616
0.00617363
0.00666971
0.00742664
0.00797285
0.0093806
0.0147517
0.0326662
0.0830542
0.161281
0.198174
0.213344
0.225586
0.248485
0.00545368
0.00550753
0.00560728
0.00567777
0.0056845
0.0057413
0.00576759
0.00582257
0.0058727
0.00596593
0.00617164
0.00666988
0.00742619
0.00792632
0.00915862
0.0136255
0.0284251
0.0703451
0.134468
0.161568
0.169488
0.176411
0.189955
0.00548293
0.00553999
0.00562473
0.0056927
0.00570109
0.00575259
0.00578481
0.00582366
0.00587369
0.00596704
0.00617297
0.00666968
0.0074176
0.00787504
0.00893446
0.0125644
0.0245069
0.0585123
0.110053
0.129854
0.133338
0.136577
0.143887
0.00548681
0.00555594
0.00564382
0.00570106
0.00571802
0.0057679
0.00578824
0.00582549
0.00587934
0.00596439
0.00617193
0.0066696
0.00740198
0.00782159
0.00872414
0.0116227
0.0210918
0.0480664
0.088673
0.103789
0.10414
0.105273
0.108806
0.0054922
0.00556114
0.00565052
0.00570782
0.00572737
0.00576902
0.00579223
0.00582927
0.00587766
0.00596448
0.00617242
0.00666984
0.00738181
0.00777131
0.00853907
0.0108272
0.0182085
0.0391207
0.0704609
0.08056
0.0812356
0.0810928
0.083237
0.00550627
0.00557958
0.00565431
0.00571208
0.00573485
0.00577134
0.00579641
0.00583356
0.00587795
0.00596598
0.00617175
0.00666491
0.00735954
0.00772903
0.00838561
0.0101842
0.0158974
0.0318212
0.0556053
0.0622655
0.0625579
0.0629193
0.0649304
0.00550286
0.00557858
0.00566224
0.00571436
0.00573334
0.00577768
0.00579831
0.00583363
0.00587826
0.00596595
0.0061719
0.00665554
0.00733673
0.00769422
0.00826429
0.00968375
0.0140691
0.0259935
0.0437703
0.0483387
0.0488448
0.0497247
0.0526283
0.00550405
0.00558453
0.00566051
0.00571825
0.00573417
0.00577911
0.00579956
0.00583358
0.00587917
0.00596544
0.00616855
0.00664447
0.00731459
0.00766781
0.00817394
0.00930957
0.0127051
0.0215621
0.0347819
0.0382168
0.0389536
0.0403509
0.0440532
0.00551607
0.00558911
0.00566183
0.00571362
0.00573684
0.00577949
0.00580029
0.00583712
0.00587862
0.00596436
0.00616786
0.0066319
0.00729281
0.00764651
0.00810731
0.00903847
0.0116782
0.0182642
0.0281234
0.0310375
0.0321043
0.0342086
0.0387299
0.00551033
0.00559359
0.00566157
0.00571258
0.00574017
0.00577907
0.00580583
0.00583332
0.00587893
0.00596282
0.00616619
0.00661975
0.00727222
0.00762935
0.00806182
0.00885017
0.0109574
0.015885
0.0233733
0.0260067
0.0275599
0.0301564
0.0351994
0.00551019
0.00558652
0.00566967
0.0057131
0.00574728
0.0057798
0.0058021
0.00583342
0.00587444
0.00596067
0.00616568
0.00660749
0.00725097
0.00761454
0.00802801
0.00872078
0.0104484
0.0142632
0.0201482
0.0226537
0.0250766
0.0277936
0.0327615
0.00551122
0.00558534
0.00566445
0.00571633
0.00574335
0.005779
0.00580201
0.00583517
0.00587347
0.00595836
0.00616416
0.00659715
0.007233
0.00760374
0.00800622
0.00863616
0.0100895
0.0131052
0.0178791
0.0203844
0.0234843
0.0262438
0.0309756
0.00551604
0.00558697
0.00566719
0.00570982
0.00574622
0.00578253
0.00580622
0.00583813
0.00587359
0.00595527
0.00616331
0.00658659
0.00721322
0.00759194
0.00799018
0.00857946
0.00987041
0.0124027
0.0165132
0.0188762
0.022595
0.025485
0.0301104
0.00550635
0.00558572
0.00565918
0.00570874
0.00574008
0.0057784
0.00580101
0.00583308
0.00586826
0.00595347
0.00616427
0.00657928
0.00719938
0.00758403
0.00797741
0.00854395
0.00968543
0.011886
0.0155058
0.0179915
0.0220432
0.0248922
0.0290519
0.00550537
0.00558725
0.00565786
0.0057121
0.00573962
0.00577741
0.00580105
0.00583336
0.00586709
0.00595091
0.00616102
0.00657049
0.00718238
0.00757273
0.00796593
0.00851401
0.0095847
0.0116285
0.0149262
0.0172756
0.0216164
0.0242137
0.0282313
0.00551191
0.0055845
0.00565896
0.00571212
0.0057414
0.00577807
0.0058056
0.00583181
0.00586438
0.00595087
0.00615816
0.00656637
0.00717134
0.0075669
0.00796078
0.00849838
0.00949167
0.011413
0.0145091
0.016977
0.0214364
0.0240884
0.0279771
0.0055052
0.00558343
0.00564934
0.00570918
0.00573362
0.00577045
0.00580157
0.00583098
0.00586346
0.00594503
0.00615281
0.006557
0.00715869
0.00755569
0.00794491
0.00847117
0.0094134
0.0112382
0.01417
0.0165382
0.0208851
0.0241248
0.0270255
0.00549868
0.00557578
0.00564771
0.00570824
0.00573229
0.00576978
0.00579929
0.00582992
0.00586185
0.00594587
0.00615591
0.00656284
0.00716089
0.00755973
0.00795271
0.00847753
0.00946265
0.0112952
0.0141887
0.0166713
0.0208121
0.0236008
0.0274428
0.00549633
0.00557813
0.0056428
0.0057058
0.00573108
0.005771
0.00579713
0.00582874
0.00586006
0.00594453
0.0061457
0.00653929
0.00713101
0.00753259
0.00792143
0.00841815
0.00934719
0.0110925
0.0137683
0.0163759
0.0206029
0.0233717
0.0272637
0.00549697
0.00556543
0.00564064
0.00569921
0.00572678
0.00576073
0.00579625
0.00582942
0.00586163
0.00594105
0.00613372
0.00651368
0.00709994
0.00750463
0.00788945
0.00836183
0.00926803
0.0109492
0.0134035
0.016048
0.0206775
0.0233055
0.0269989
0.005481
0.00557299
0.00563466
0.00569249
0.00572694
0.00575878
0.00578402
0.00583064
0.00585898
0.0059319
0.00611739
0.00648451
0.00706414
0.00747386
0.00785085
0.00830319
0.00912015
0.0107569
0.0132281
0.0154973
0.0198986
0.0232042
0.0267691
0.00549127
0.00555827
0.00563117
0.0056813
0.00571166
0.00575998
0.00578063
0.00582355
0.00585163
0.00592272
0.00609879
0.00645161
0.00702544
0.00743755
0.00780818
0.00824674
0.00900162
0.0106294
0.0129184
0.0150277
0.0191988
0.0232306
0.0264688
0.00547306
0.00556439
0.0056343
0.00566053
0.00570704
0.00576006
0.00578351
0.00581493
0.00584244
0.0059097
0.00607619
0.00641412
0.00697913
0.00739862
0.00775402
0.00818228
0.00886199
0.0103917
0.0127991
0.0147019
0.0180532
0.0225629
0.0259234
0.00547685
0.0055568
0.00563306
0.00565316
0.00570859
0.00574902
0.00577544
0.00580169
0.00582909
0.00589461
0.00605134
0.00637298
0.00692967
0.00734924
0.00769657
0.00811379
0.00875158
0.0101973
0.0126138
0.014401
0.0174707
0.0218319
0.0252621
0.00546762
0.00553798
0.00561987
0.00565204
0.0056937
0.00573131
0.00576389
0.00579137
0.00581884
0.00587647
0.00602204
0.00632609
0.0068679
0.00729697
0.00762396
0.00802296
0.00863993
0.0099392
0.0122875
0.0141412
0.0167612
0.0211867
0.0241748
0.00544791
0.00550875
0.00559705
0.00563473
0.00567351
0.00569946
0.00574384
0.00577967
0.00580605
0.00585788
0.0059929
0.00627644
0.00680174
0.00723161
0.00754645
0.00791981
0.00849712
0.00962057
0.0118848
0.0139392
0.0157094
0.0206403
0.0235093
0.00541788
0.00546815
0.00556615
0.005596
0.00565299
0.00568316
0.00572566
0.00576292
0.00578872
0.00583817
0.00596131
0.00622015
0.00671898
0.00716305
0.00745861
0.00779648
0.0083199
0.00928588
0.0113973
0.0132922
0.015463
0.0201098
0.0224031
0.00537635
0.00545353
0.00552599
0.00557762
0.0056209
0.00565928
0.00570561
0.00574333
0.00577024
0.00581879
0.00592983
0.00616229
0.00662911
0.00708013
0.00737086
0.00767046
0.00812832
0.00893682
0.0108061
0.0126581
0.015644
0.0193245
0.0218167
0.00532103
0.00545382
0.00547392
0.00554214
0.0055846
0.0056536
0.00568132
0.00571754
0.00574551
0.00579305
0.00589242
0.0060978
0.0065262
0.00698712
0.00727373
0.00753589
0.007923
0.0085745
0.0100534
0.0118803
0.0150928
0.0188594
0.0207529
0.00530079
0.00543357
0.00545462
0.00554209
0.00558197
0.0056269
0.00565014
0.00568758
0.00571765
0.00576491
0.00585403
0.00603323
0.00641197
0.00688496
0.00718037
0.00741057
0.00772973
0.00824569
0.00931338
0.0110791
0.0145182
0.0181288
0.0201564
0.00529976
0.0054018
0.00545295
0.00551575
0.00555619
0.00558634
0.0056077
0.00564688
0.00568018
0.00572687
0.00580727
0.00596188
0.00628995
0.00675402
0.00707359
0.00728703
0.00754438
0.00794866
0.00871905
0.0101425
0.0133502
0.0170791
0.0198314
0.00527045
0.00536389
0.00542543
0.00548029
0.0055233
0.00554582
0.00556187
0.00560376
0.00564052
0.00568624
0.00575927
0.00589139
0.00616113
0.00662617
0.00694927
0.00716929
0.00738541
0.00770228
0.00826212
0.0093243
0.0116778
0.0158704
0.0191113
0.00522428
0.00531055
0.0053802
0.00543111
0.00547526
0.00549813
0.00551673
0.00555487
0.00559063
0.00563378
0.00569867
0.00581025
0.00602801
0.00644759
0.00681229
0.0070463
0.00723213
0.00747775
0.00788715
0.00864957
0.0102694
0.0141632
0.018256
0.00517093
0.00525065
0.00532896
0.005379
0.00542096
0.00544939
0.00547466
0.00550717
0.00554044
0.00557964
0.00563602
0.00572912
0.00590265
0.00627256
0.00662817
0.00691136
0.00709652
0.00728507
0.00758434
0.00811856
0.0092127
0.0121585
0.0166338
0.00509975
0.00517738
0.00526354
0.00531402
0.00535099
0.00538575
0.0054174
0.00544628
0.00547588
0.00551011
0.0055572
0.00563276
0.00576713
0.00605959
0.006424
0.0067347
0.00693248
0.00709532
0.00731234
0.00768208
0.00840724
0.0101686
0.0149331
0.00502152
0.00510505
0.0051961
0.00524747
0.0052792
0.00531869
0.00535485
0.00538333
0.0054106
0.00543983
0.00547907
0.00554022
0.00564301
0.00584595
0.00620714
0.00651773
0.00677523
0.00692321
0.00708586
0.00734411
0.00781976
0.0088868
0.0122159
0.00492563
0.00501914
0.00511152
0.00516161
0.00519011
0.00523093
0.00526905
0.00529801
0.00532387
0.00534891
0.00538037
0.00542803
0.00550655
0.00564736
0.00591597
0.00624836
0.00653886
0.00675348
0.00687824
0.0070542
0.00736216
0.00800625
0.00977572
0.00483069
0.00493521
0.00502487
0.00507216
0.00510148
0.00514122
0.00518024
0.00521037
0.00523622
0.00525934
0.00528619
0.00532492
0.00538304
0.0054819
0.0056696
0.00591554
0.00624339
0.00653757
0.00672904
0.00684884
0.00704304
0.00741715
0.00837777
0.00471918
0.00482964
0.0049133
0.00495503
0.00498802
0.00502473
0.00506307
0.00509289
0.00511868
0.00513983
0.00516297
0.00519376
0.00524018
0.00530732
0.0054311
0.00560386
0.0058274
0.00616481
0.00646575
0.00665436
0.00678336
0.00700326
0.00749972
0.00461354
0.0047257
0.00480108
0.004838
0.0048769
0.0049112
0.00494911
0.00497839
0.00500427
0.00502614
0.00504761
0.0050748
0.00511155
0.00515992
0.005244
0.00536073
0.00550054
0.00573453
0.00606692
0.00636666
0.0065628
0.00671006
0.00698308
0.00448367
0.00459047
0.00465614
0.0046875
0.00473086
0.00476248
0.00479849
0.00482598
0.00484977
0.00487025
0.00488952
0.00491244
0.00494386
0.00497657
0.00503596
0.00511665
0.00520287
0.00533548
0.00556793
0.00587959
0.00615896
0.00636034
0.00654615
0.00436262
0.00446221
0.00451908
0.00454834
0.00459492
0.00462573
0.0046602
0.0046867
0.0047097
0.00473068
0.00474886
0.00476936
0.00479472
0.00482233
0.00485929
0.00492316
0.00498704
0.00506175