/*--------------------------------*- C++ -*----------------------------------*\
  =========                 |
  \\      /  F ield         | OpenFOAM: The Open Source CFD Toolbox
   \\    /   O peration     | Website:  https://openfoam.org
    \\  /    A nd           | Version:  7
     \\/     M anipulation  |
\*---------------------------------------------------------------------------*/
FoamFile
{
    version     2.0;
    format      ascii;
    class       volScalarField;
    location    "79";
    object      nut;
}
// * * * * * * * * * * * * * * * * * * * * * * * * * * * * * * * * * * * * * //

dimensions      [0 2 -1 0 0 0 0];

internalField   nonuniform List<scalar> 
12842
(
0.00181376
0.00179181
0.00178388
0.0017714
0.00177231
0.00176343
0.00176473
0.00176068
0.00175872
0.00176029
0.00175647
0.00176416
0.00176823
0.00155194
0.00074118
0.000412781
0.000262186
0.000185959
0.000140063
0.00011056
9.03724e-05
7.66707e-05
6.59105e-05
0.00180782
0.00179641
0.00179213
0.00176871
0.00177044
0.00176274
0.00176471
0.0017606
0.00175891
0.00176023
0.00175617
0.00176434
0.00176857
0.00150957
0.00072166
0.000400744
0.000255588
0.000181575
0.000137079
0.000108634
8.90368e-05
7.59977e-05
6.52873e-05
0.00181105
0.00178052
0.00179229
0.00178106
0.00177533
0.00176308
0.0017651
0.00175982
0.00175925
0.00175929
0.0017562
0.00176432
0.00176939
0.00144806
0.0006951
0.00038728
0.000248096
0.000176825
0.000134097
0.000106434
8.75614e-05
7.51626e-05
6.44091e-05
0.00181103
0.00178506
0.0017754
0.00176949
0.001773
0.00176333
0.00176548
0.00175951
0.00175932
0.00175869
0.00175614
0.00176414
0.00177003
0.00138186
0.000666779
0.000372817
0.000240713
0.000171875
0.000130744
0.000104222
8.58644e-05
7.41237e-05
6.34626e-05
0.00181043
0.00178166
0.00178299
0.00176936
0.00177246
0.00176222
0.00176546
0.00175853
0.00175926
0.00175712
0.00175619
0.00176352
0.00177073
0.00132345
0.000641748
0.000360451
0.000233589
0.000167354
0.000127534
0.000101977
8.4216e-05
7.29781e-05
6.24177e-05
0.00180788
0.00178395
0.00177156
0.00176352
0.00176937
0.00176275
0.00176608
0.00175816
0.00175912
0.00175635
0.00175614
0.00176316
0.00177124
0.0012799
0.000622293
0.000351098
0.000227562
0.000163668
0.000124942
0.000100032
8.27894e-05
7.20053e-05
6.147e-05
0.00180833
0.00178108
0.00177886
0.00176448
0.00176981
0.00176097
0.00176479
0.00175711
0.00175868
0.00175479
0.00175618
0.0017624
0.00177145
0.00125102
0.000609163
0.00034351
0.000223657
0.000160735
0.000122684
9.83318e-05
8.13689e-05
7.0884e-05
6.04733e-05
0.00180423
0.00178205
0.00177004
0.00175933
0.00176731
0.00176175
0.00176639
0.00175702
0.00175846
0.001754
0.00175604
0.00176172
0.00177173
0.00125502
0.000610125
0.000344361
0.000222811
0.000159829
0.00012172
9.74472e-05
8.04577e-05
7.01497e-05
5.98207e-05
0.00180624
0.00177883
0.00177523
0.0017614
0.0017685
0.00176125
0.00176545
0.00175619
0.00175809
0.00175291
0.0017559
0.00176089
0.00177189
0.00125554
0.00061003
0.000342851
0.000220973
0.000158518
0.000120664
9.64958e-05
7.95553e-05
6.94449e-05
5.92253e-05
0.00180052
0.00178049
0.00176945
0.00175665
0.00176608
0.00176154
0.00176667
0.00175685
0.00175764
0.00175222
0.00175571
0.00176041
0.00177216
0.00122269
0.000595224
0.000334887
0.000216184
0.000155251
0.000118366
9.48577e-05
7.82715e-05
6.8471e-05
5.83776e-05
0.00180308
0.00177669
0.00177246
0.00175935
0.00176687
0.00176129
0.00176666
0.0017563
0.00175807
0.00175206
0.0017556
0.00175999
0.0017726
0.00120709
0.000586391
0.000330743
0.000213495
0.000153376
0.000117204
9.40379e-05
7.75888e-05
6.7906e-05
5.78868e-05
0.00179753
0.00177828
0.00176925
0.00175464
0.00176444
0.00176107
0.00176751
0.00175725
0.00175778
0.00175204
0.00175571
0.00176063
0.00177305
0.00118841
0.000579872
0.000327231
0.000211424
0.000151921
0.000116071
9.32861e-05
7.70078e-05
6.74345e-05
5.75497e-05
0.00179884
0.00177562
0.00177057
0.00175715
0.00176437
0.00176068
0.00176754
0.00175714
0.00175849
0.00175223
0.00175594
0.00176152
0.00177347
0.00117138
0.000572783
0.000322606
0.000208951
0.000150335
0.000114985
9.24907e-05
7.63615e-05
6.69165e-05
5.72003e-05
0.00179476
0.00177666
0.00176907
0.00175353
0.00176201
0.00176045
0.00176783
0.00175763
0.00175841
0.00175244
0.00175627
0.00176219
0.00177669
0.00115164
0.00056629
0.000319429
0.000206774
0.000148935
0.000113824
9.17629e-05
7.58588e-05
6.64792e-05
5.69864e-05
0.0017941
0.00177546
0.00176905
0.00175502
0.00176135
0.00175999
0.0017678
0.00175769
0.0017586
0.00175257
0.00175654
0.00176352
0.00177543
0.00113335
0.000557821
0.000314813
0.000204416
0.00014758
0.000112966
9.11766e-05
7.54325e-05
6.61618e-05
5.69338e-05
0.00179166
0.00177585
0.00176812
0.00175301
0.00175911
0.00176002
0.00176775
0.00175723
0.00175845
0.00175269
0.00175696
0.00176463
0.00177784
0.0011159
0.000552922
0.000310926
0.000202709
0.000146465
0.000112133
9.07597e-05
7.52757e-05
6.602e-05
5.71178e-05
0.00178995
0.00177525
0.00176708
0.00175355
0.00175817
0.00175995
0.00176769
0.00175747
0.00175805
0.00175262
0.00175704
0.00176588
0.00177617
0.00109767
0.000544544
0.000307333
0.000200842
0.000145588
0.000111741
9.06513e-05
7.53222e-05
6.61579e-05
5.76188e-05
0.00178841
0.00177533
0.00176627
0.00175279
0.00175646
0.00176034
0.0017672
0.00175647
0.00175758
0.00175258
0.00175746
0.00176678
0.00177619
0.00108237
0.000535396
0.000304831
0.000199852
0.000145086
0.000111482
9.08086e-05
7.5792e-05
6.66277e-05
5.84547e-05
0.00178695
0.00177438
0.00176439
0.00175287
0.00175533
0.00176081
0.00176705
0.00175691
0.00175703
0.00175242
0.00175746
0.00176811
0.00177872
0.00106963
0.00052862
0.000302313
0.00019881
0.000144925
0.000111893
9.15103e-05
7.6695e-05
6.76618e-05
5.98237e-05
0.00178584
0.00177443
0.00176395
0.00175273
0.00175446
0.00176149
0.00176584
0.00175608
0.00175633
0.00175232
0.0017579
0.00176879
0.00177801
0.00105901
0.000524223
0.000301011
0.000198721
0.000145398
0.000112602
9.26306e-05
7.82291e-05
6.92676e-05
6.17901e-05
0.00178498
0.00177294
0.00176133
0.00175278
0.00175343
0.00176211
0.00176559
0.00175661
0.00175574
0.00175222
0.00175805
0.00176904
0.0017846
0.00105097
0.000521218
0.000300162
0.000199074
0.000146409
0.00011431
9.4614e-05
8.063e-05
7.17795e-05
6.45846e-05
0.00178431
0.00177318
0.0017616
0.00175267
0.00175336
0.00176261
0.00176375
0.00175617
0.00175517
0.00175236
0.00175849
0.0017709
0.00178572
0.00104462
0.000520389
0.000300084
0.000200309
0.000148341
0.000116546
9.71641e-05
8.37616e-05
7.51253e-05
6.83025e-05
0.00178393
0.00177121
0.00175849
0.0017528
0.00175277
0.00176306
0.0017635
0.00175667
0.0017546
0.00175244
0.00175869
0.00177189
0.00178938
0.00104528
0.00052388
0.00030238
0.000202972
0.000151052
0.00011995
0.000100844
8.80636e-05
7.97273e-05
7.31719e-05
0.00178405
0.00177176
0.00175894
0.00175271
0.00175319
0.00176315
0.00176145
0.00175659
0.00175419
0.00175301
0.00175893
0.00177106
0.00178552
0.00104328
0.000523485
0.00030288
0.000205427
0.000154705
0.000123948
0.000105348
9.32335e-05
8.55302e-05
7.96075e-05
0.00178346
0.00177014
0.00175706
0.00175291
0.00175408
0.00176298
0.00176075
0.00175699
0.00175389
0.00175339
0.001759
0.00177133
0.00178255
0.00103288
0.000520906
0.000304623
0.000209112
0.000159372
0.000129508
0.000111532
0.00010043
9.33451e-05
8.76451e-05
0.00178345
0.00177066
0.00175735
0.00175285
0.00175466
0.00176243
0.00175936
0.00175671
0.00175372
0.00175392
0.00175886
0.0017734
0.00178526
0.00102747
0.000524048
0.000306774
0.000213572
0.000165241
0.000135926
0.000118976
0.000108351
0.00010193
9.69412e-05
0.00178347
0.00176911
0.0017562
0.00175333
0.0017559
0.00176158
0.00175879
0.00175699
0.0017535
0.00175408
0.00175938
0.00177398
0.00178395
0.00102453
0.000524361
0.000311978
0.00021969
0.00017266
0.000143844
0.000127404
0.000118073
0.000112838
0.000108088
0.00178278
0.00176957
0.00175608
0.00175324
0.0017564
0.0017606
0.00175764
0.00175611
0.00175311
0.00175425
0.00176011
0.00177428
0.00178605
0.0010197
0.000523502
0.000317273
0.000227065
0.000181201
0.000153297
0.000138335
0.000129512
0.000124679
0.000120585
0.00178325
0.00176786
0.00175606
0.00175401
0.00175751
0.0017592
0.00175715
0.00175599
0.00175266
0.00175432
0.001761
0.00177606
0.00179311
0.00101489
0.000525426
0.000326275
0.000236319
0.000191551
0.000164102
0.000149571
0.000142003
0.000138381
0.000134496
0.00178252
0.00176802
0.00175574
0.00175403
0.00175768
0.00175829
0.00175623
0.00175466
0.00175216
0.00175458
0.00176209
0.00177784
0.00180661
0.00101844
0.000530882
0.000335092
0.000246667
0.00020257
0.000176429
0.000163511
0.000156159
0.000152504
0.00014906
0.00178288
0.001766
0.00175611
0.00175483
0.00175831
0.00175664
0.00175553
0.00175372
0.00175205
0.0017551
0.00176353
0.00178436
0.00182429
0.00101962
0.000545666
0.000349817
0.000260352
0.000215996
0.000189606
0.000176784
0.000170535
0.000167461
0.000164375
0.0017827
0.00176578
0.00175632
0.00175488
0.00175805
0.00175566
0.00175472
0.00175303
0.00175183
0.00175628
0.00176897
0.00180079
0.00184865
0.00103429
0.00056019
0.00036264
0.000273252
0.000228762
0.000203705
0.000192471
0.00018584
0.000182574
0.000179702
0.00178253
0.0017634
0.00175639
0.0017556
0.00175792
0.00175402
0.00175377
0.00175236
0.00175277
0.0017579
0.00177819
0.00181913
0.00187807
0.00105829
0.000586534
0.000384559
0.000291827
0.000245564
0.000218761
0.000206558
0.000200986
0.000197179
0.000194979
0.00178299
0.00176297
0.00175672
0.00175556
0.00175681
0.00175237
0.00175328
0.00175236
0.00175421
0.00176274
0.00179583
0.00184658
0.00190269
0.00109997
0.000612497
0.000402532
0.000306775
0.000259336
0.000233566
0.00022312
0.000215853
0.000212159
0.000210083
0.00178227
0.00176043
0.00175683
0.00175611
0.00175554
0.00175054
0.00175237
0.00175352
0.00175711
0.0017722
0.00181535
0.00187109
0.00192937
0.00114079
0.000645931
0.000430251
0.000329293
0.00027866
0.000250221
0.000236931
0.000231093
0.000225818
0.000224236
0.00178325
0.00176007
0.00175632
0.00175555
0.00175396
0.00174987
0.0017528
0.00175644
0.00176565
0.0017886
0.00184098
0.00189446
0.00194337
0.00120896
0.000686509
0.000454515
0.000346701
0.000293186
0.000264514
0.00025371
0.000244981
0.000239286
0.000237999
0.00178209
0.0017576
0.00175594
0.00175538
0.00175194
0.00174809
0.00175305
0.00176251
0.00177823
0.0018079
0.00186168
0.00191224
0.00196161
0.00126402
0.000722602
0.000483797
0.000371107
0.000313894
0.000282719
0.000267197
0.000259738
0.000252083
0.000250838
0.00178344
0.00175743
0.00175411
0.00175414
0.0017512
0.00174861
0.00175487
0.00177443
0.00179543
0.00182889
0.00188287
0.00192695
0.00196791
0.00135532
0.000777713
0.000516462
0.000391999
0.000329534
0.000296165
0.000283824
0.000273365
0.000263668
0.000261351
0.00178231
0.00175511
0.00175247
0.00175333
0.00174967
0.0017496
0.00175705
0.00178917
0.00181261
0.00184753
0.00189743
0.00193572
0.00197664
0.00142347
0.000816032
0.000544284
0.000415976
0.000351087
0.000315607
0.000297173
0.000287078
0.000272651
0.000269309
0.0017837
0.00175481
0.00174937
0.00175245
0.00175114
0.0017532
0.00176405
0.00180745
0.0018288
0.00186449
0.00191082
0.00194186
0.0019776
0.00153211
0.000881408
0.000585737
0.000442142
0.000368097
0.000329532
0.000313844
0.000298729
0.000279664
0.000277312
0.00178285
0.00175265
0.00174806
0.00175204
0.00175144
0.00175821
0.00177334
0.00182176
0.001843
0.00187775
0.00191743
0.00194276
0.0019798
0.00161164
0.000923864
0.000612889
0.000463452
0.000390727
0.000351081
0.000327147
0.000307806
0.000288085
0.000289296
0.0017842
0.00175149
0.00174438
0.00175222
0.00175529
0.00176964
0.00178426
0.00183686
0.00185481
0.00188807
0.00192278
0.00194244
0.0019771
0.00173287
0.000995921
0.000659699
0.000497409
0.000412873
0.000365903
0.000342739
0.000319814
0.000302592
0.000306572
0.00178337
0.00174986
0.00174452
0.00175482
0.00176033
0.00178103
0.00179381
0.00184676
0.00186386
0.00189457
0.00192239
0.00193839
0.00197692
0.00182038
0.00104276
0.000690998
0.000520113
0.000434141
0.000390472
0.000356531
0.000336163
0.000332802
0.00043646
0.00178468
0.00174798
0.00174301
0.0017606
0.00177074
0.00179371
0.00180394
0.00185601
0.00187026
0.00189825
0.00192165
0.00193479
0.00197181
0.00195132
0.00112196
0.000744083
0.000560144
0.000468408
0.000410568
0.000383816
0.000391213
0.000604425
0.00128524
0.00178396
0.00174799
0.00174512
0.00176949
0.00178226
0.00180484
0.00181109
0.00186095
0.00187417
0.00189892
0.00191672
0.00192875
0.00197206
0.00202165
0.00117385
0.000779469
0.000589282
0.000493527
0.000442521
0.000427627
0.000642746
0.00171733
0.00297204
0.00178541
0.00174747
0.00174751
0.00178326
0.00179356
0.00181532
0.00181831
0.00186465
0.00187579
0.00189758
0.00191247
0.00192447
0.00196595
0.00201173
0.00126179
0.000845053
0.000647419
0.000544074
0.000502279
0.000701651
0.00176719
0.0032282
0.00445426
0.00178511
0.00174742
0.00175503
0.00179892
0.00180557
0.00182348
0.00182209
0.00186572
0.00187575
0.00189444
0.00190566
0.00191867
0.0019675
0.00200818
0.00132057
0.00089093
0.000687615
0.000595806
0.000706316
0.00193372
0.00334981
0.00489393
0.00525531
0.00178623
0.00174997
0.00176346
0.00181501
0.0018148
0.00183032
0.00182622
0.00186558
0.00187404
0.00189017
0.00190027
0.00191537
0.00196205
0.00199739
0.0014224
0.000978996
0.000786368
0.000776709
0.00139103
0.00318731
0.00424136
0.00523427
0.00541771
0.00178588
0.00175276
0.00177637
0.00183127
0.00182496
0.00183525
0.00182745
0.0018643
0.0018716
0.0018853
0.00189328
0.00191067
0.00196361
0.00199168
0.0014959
0.00104418
0.000869791
0.00103852
0.00264556
0.0037359
0.005168
0.00567756
0.00553419
0.00178733
0.00175714
0.00179062
0.00184597
0.00183202
0.00183867
0.00182917
0.00186193
0.00186789
0.00187937
0.00188785
0.00190859
0.00196053
0.00197994
0.00160809
0.00116653
0.00109657
0.00196721
0.00316266
0.00451909
0.00560185
0.00558481
0.00536342
0.00178792
0.00176549
0.00180501
0.00185986
0.00183902
0.00184072
0.00182907
0.00185923
0.00186392
0.00187399
0.00188159
0.00190524
0.00196025
0.0019734
0.00167731
0.00124756
0.00128895
0.00225833
0.00347939
0.00475668
0.00576335
0.00567565
0.00535615
0.00179109
0.00177919
0.00181799
0.00186965
0.00184372
0.0018412
0.00182941
0.00185617
0.00185964
0.00186814
0.00187735
0.00190458
0.0019594
0.00196138
0.00179455
0.00141504
0.0016451
0.00247636
0.00385314
0.00500799
0.00600169
0.00587972
0.00547304
0.00179322
0.00179642
0.00182994
0.00187845
0.00184794
0.0018412
0.0018293
0.0018534
0.00185534
0.00186336
0.00187267
0.00190299
0.00195938
0.00195545
0.0017971
0.00153214
0.00167971
0.00259032
0.00377971
0.00505545
0.00618388
0.00607754
0.00566798
0.0017962
0.00181649
0.00183972
0.00188358
0.00185108
0.00183999
0.00183012
0.00185067
0.00185134
0.0018583
0.00186972
0.0019032
0.00195933
0.00194379
0.00176712
0.00155197
0.00173195
0.00263953
0.00374184
0.00510479
0.00636596
0.00624201
0.00583587
0.00179913
0.00183359
0.00184788
0.00188753
0.00185367
0.00183867
0.00183106
0.00184826
0.00184754
0.00185441
0.00186669
0.00190301
0.00195992
0.00193732
0.0017498
0.00153264
0.00174723
0.00264808
0.00366235
0.00513823
0.00645923
0.00638599
0.0059942
0.00180537
0.00184843
0.00185381
0.00188921
0.00185563
0.00183662
0.00183248
0.00184582
0.00184438
0.00185047
0.00186502
0.001904
0.00196107
0.00192828
0.0017222
0.0015104
0.00179135
0.00268589
0.00349226
0.00495935
0.00649425
0.00640077
0.00609161
0.00181457
0.00185882
0.00185776
0.0018893
0.00185642
0.00183468
0.00183298
0.00184358
0.00184189
0.00184784
0.00186357
0.00190488
0.00196277
0.0019227
0.0017107
0.00149956
0.00183245
0.00273265
0.00340663
0.00478124
0.00642245
0.00645432
0.00620752
0.00182266
0.00186658
0.00185979
0.00188839
0.00185645
0.00183254
0.00183304
0.00184131
0.00184008
0.00184534
0.00186294
0.00190623
0.0019651
0.0019179
0.00169278
0.00150585
0.00190232
0.00283274
0.0034306
0.00468167
0.00628525
0.00645912
0.00630655
0.00182897
0.00187148
0.00186097
0.0018861
0.0018554
0.00183039
0.00183206
0.00183909
0.00183859
0.00184357
0.00186232
0.00190794
0.00196802
0.0019132
0.00168582
0.00150993
0.00196609
0.00284657
0.00352092
0.00465439
0.00606042
0.00645835
0.00632562
0.001833
0.00187421
0.00186048
0.00188335
0.00185349
0.00182817
0.00183039
0.00183669
0.00183763
0.00184217
0.00186239
0.00191004
0.00197145
0.00190924
0.00166645
0.00150981
0.00204911
0.00295459
0.00356667
0.00463315
0.00601809
0.00645483
0.0064053
0.00183611
0.00187485
0.00185987
0.00187927
0.00185078
0.00182592
0.00182801
0.00183463
0.001837
0.00184113
0.00186236
0.00191244
0.0019752
0.00190503
0.00166235
0.00151532
0.00212723
0.0030025
0.00356884
0.004508
0.00605098
0.00645363
0.00647096
0.00183689
0.00187376
0.00185772
0.00187523
0.00184739
0.00182388
0.00182523
0.00183234
0.00183661
0.00184065
0.00186275
0.00191504
0.00197923
0.00190158
0.00164804
0.00151939
0.0021374
0.00304877
0.00358618
0.00451847
0.00595751
0.00641812
0.00647776
0.00183811
0.00187117
0.00185622
0.00187007
0.00184384
0.0018217
0.00182242
0.00183058
0.00183652
0.00184027
0.00186302
0.00191785
0.00198318
0.0018974
0.00164635
0.00155587
0.00220185
0.00298773
0.00357624
0.00451134
0.00592525
0.00636826
0.0064828
0.00183711
0.00186782
0.00185331
0.00186554
0.00184
0.00182021
0.00181965
0.00182877
0.00183648
0.00184021
0.00186343
0.00192061
0.00198704
0.0018932
0.00164668
0.00160036
0.00233876
0.00308968
0.00362802
0.00447366
0.00590473
0.0064026
0.00653942
0.00183769
0.00186323
0.00185151
0.0018601
0.00183653
0.00181839
0.00181743
0.00182729
0.00183647
0.0018405
0.00186377
0.00192346
0.00199073
0.00188935
0.00164961
0.00169069
0.0024275
0.0030292
0.00360418
0.00446591
0.00588005
0.00640776
0.00640179
0.00183631
0.00185881
0.00184855
0.00185583
0.00183319
0.00181762
0.00181546
0.00182618
0.00183672
0.00184042
0.00186413
0.00192618
0.00199358
0.00188358
0.00166427
0.00175613
0.0025224
0.00292579
0.00356334
0.00447056
0.00596102
0.00640831
0.00647968
0.00183702
0.00185369
0.00184667
0.00185104
0.00183046
0.00181662
0.00181443
0.00182506
0.00183646
0.00184098
0.00186437
0.00192867
0.00199661
0.00188057
0.00166827
0.00178222
0.00242109
0.00284811
0.00352597
0.00443647
0.00585636
0.00639391
0.00642343
0.00183605
0.00184917
0.00184398
0.00184754
0.00182807
0.00181641
0.00181349
0.00182454
0.00183689
0.00184139
0.00186458
0.00193133
0.00199839
0.00187343
0.00167026
0.00176527
0.00223225
0.00269656
0.00356201
0.00453295
0.00583579
0.00633965
0.00650752
0.00183712
0.00184462
0.00184209
0.00184413
0.00182636
0.00181656
0.00181367
0.00182401
0.00183643
0.00184149
0.00186468
0.00193317
0.00200027
0.00186835
0.00165595
0.00167175
0.00206438
0.00266559
0.00351571
0.00467788
0.00573815
0.00611573
0.00647968
0.00183707
0.00184112
0.00183975
0.00184187
0.00182486
0.00181675
0.00181359
0.00182392
0.00183674
0.00184268
0.00186416
0.0019357
0.00200145
0.0018582
0.0016148
0.00157451
0.00190256
0.00261049
0.00353301
0.00468483
0.00556515
0.00585941
0.00621765
0.00183798
0.00183776
0.00183787
0.00183989
0.00182406
0.00181783
0.00181467
0.00182415
0.00183642
0.00184229
0.00186441
0.00193715
0.00200232
0.00184784
0.00157121
0.00147897
0.00184164
0.00256647
0.00361193
0.0045881
0.00532516
0.00556523
0.00587367
0.00183919
0.00183568
0.00183598
0.00183924
0.00182334
0.00181844
0.00181512
0.00182431
0.00183641
0.00184193
0.00186446
0.00193931
0.00200215
0.00183115
0.0015321
0.00140072
0.00175431
0.00253135
0.00362308
0.00441178
0.00502692
0.00523021
0.00550099
0.00183959
0.00183425
0.00183426
0.00183823
0.00182296
0.00181993
0.00181658
0.00182536
0.00183623
0.00183974
0.00186608
0.00194032
0.00200292
0.00181509
0.00148584
0.00140986
0.00176974
0.00257718
0.00353171
0.00418088
0.00469188
0.00486318
0.00509794
0.00184115
0.00183299
0.0018328
0.00183909
0.0018232
0.00182077
0.00181742
0.00182568
0.00183627
0.00183867
0.00186683
0.00194284
0.00200289
0.00180014
0.00146976
0.00139485
0.00174549
0.00251353
0.00336955
0.00391602
0.00433395
0.0044746
0.00466799
0.00184174
0.00183365
0.00183178
0.00183843
0.00182253
0.00182234
0.00181853
0.00182698
0.00183562
0.00183859
0.00186696
0.00194502
0.00200322
0.00179037
0.00146174
0.00139613
0.00173432
0.00250127
0.00316931
0.00363903
0.00397475
0.00408227
0.00422364
0.00184173
0.00183264
0.00182992
0.0018399
0.00182364
0.00182273
0.00181969
0.00182771
0.00183604
0.00183816
0.00186666
0.00194525
0.00200172
0.00178306
0.00145771
0.00136954
0.00168523
0.00236426
0.0029493
0.00336393
0.00362544
0.00370022
0.00378214
0.00184313
0.00183416
0.00183028
0.00183929
0.0018225
0.00182428
0.00182032
0.00182859
0.00183563
0.00183717
0.00186728
0.00194566
0.00200273
0.00178363
0.00144158
0.00131091
0.00156374
0.00213426
0.00272511
0.00309777
0.00329061
0.0033341
0.00335832
0.00184195
0.00183367
0.00182848
0.00184084
0.00182421
0.00182458
0.00182123
0.00182972
0.00183419
0.00183732
0.00186597
0.00194491
0.00200244
0.00177791
0.0014205
0.00123284
0.00140586
0.00188874
0.00250726
0.00284614
0.00298019
0.00299387
0.00295863
0.00184469
0.00183557
0.00182999
0.00184049
0.00182335
0.00182538
0.00182276
0.0018312
0.00183393
0.00183669
0.00186677
0.00194549
0.00200306
0.00176888
0.00138574
0.00114453
0.00126634
0.00167102
0.00230412
0.00260773
0.00268235
0.00266746
0.00257991
0.00184497
0.00183677
0.00183231
0.00184376
0.00182611
0.00182793
0.00182266
0.00183231
0.00183174
0.00183719
0.00186592
0.00194553
0.00200284
0.00176151
0.00135618
0.00108178
0.00115787
0.0014968
0.0021139
0.00238551
0.00241
0.00236255
0.00221444
0.00184691
0.0018406
0.00183279
0.00184336
0.00182711
0.00182634
0.00182594
0.00183015
0.00182921
0.00183751
0.00186633
0.00194554
0.00199947
0.00175056
0.00132744
0.00103956
0.00107186
0.00135097
0.00193995
0.00217606
0.00215266
0.00206628
0.00187582
0.00183813
0.00183953
0.0018322
0.00184059
0.00182578
0.00182653
0.00182048
0.00182782
0.00183062
0.00183675
0.00186622
0.00194551
0.00199645
0.00173857
0.00131639
0.00101534
0.00100458
0.00122498
0.00177333
0.00198974
0.00191757
0.00178887
0.00156884
0.00182981
0.00183084
0.00182735
0.00183579
0.00182374
0.00182132
0.00181876
0.00182412
0.00182944
0.00183665
0.00186623
0.00194523
0.0019907
0.00173469
0.00131983
0.00100736
0.000955024
0.00111764
0.00161831
0.00177275
0.00169686
0.00152901
0.00131543
0.00182315
0.00182935
0.00182381
0.00183056
0.00182362
0.00181994
0.00181664
0.00182485
0.00182865
0.00183729
0.00186696
0.00194478
0.00198646
0.00173904
0.00133569
0.00101452
0.000920369
0.00102518
0.00146967
0.00156534
0.00147129
0.00129713
0.00111148
0.00181639
0.00182552
0.00182194
0.001826
0.00181998
0.00182077
0.00181646
0.00182404
0.00182838
0.00183723
0.00186717
0.00194219
0.00198426
0.00174984
0.00136171
0.00103522
0.000900679
0.000947949
0.0013298
0.00137911
0.00127435
0.00110578
0.000969839
0.00181252
0.00182345
0.00182122
0.00182683
0.00181778
0.00182
0.00181592
0.00182285
0.00182834
0.00183734
0.00186556
0.0019388
0.00198356
0.00176587
0.0013958
0.00106588
0.000891992
0.000886229
0.00120117
0.00121503
0.00110952
0.000955857
0.000865539
0.00181744
0.00181953
0.00182078
0.00182458
0.00181561
0.00181958
0.00181625
0.00182201
0.00182798
0.00183693
0.00186631
0.00193633
0.00198422
0.00178538
0.00143507
0.00110466
0.000892959
0.000836322
0.00108901
0.00108364
0.000979492
0.000855562
0.00080643
0.001815
0.00182162
0.00181812
0.00182175
0.00181751
0.00181887
0.00181734
0.00181931
0.00182768
0.00183603
0.00186486
0.00193293
0.00198544
0.00180625
0.00147724
0.00114524
0.000898619
0.000801345
0.000993434
0.000975133
0.00088758
0.000787668
0.000767484
0.00181291
0.00181892
0.00181965
0.00182241
0.0018198
0.00181906
0.00181578
0.00182034
0.00182625
0.0018355
0.00186562
0.00192891
0.00198723
0.00182796
0.00151994
0.00118753
0.000909815
0.000776441
0.00092583
0.000900425
0.000837977
0.000753474
0.000743938
0.00181317
0.00181695
0.00181838
0.00182293
0.00181851
0.0018175
0.00181637
0.00182107
0.00182528
0.00183526
0.00186469
0.00192583
0.00198901
0.00184834
0.00156078
0.00122334
0.000920142
0.000758431
0.000868453
0.000842528
0.000809167
0.000728571
0.000723498
0.00181154
0.00181733
0.00181768
0.00181896
0.00181943
0.00181989
0.00181765
0.001822
0.00182664
0.0018345
0.0018646
0.00192392
0.0019909
0.00186778
0.0016002
0.00125852
0.000936099
0.000754349
0.000839954
0.000809735
0.000792481
0.000724375
0.000726769
0.00181101
0.0018173
0.00181578
0.00182043
0.00181769
0.00181899
0.00181514
0.00181989
0.00182511
0.00183426
0.00186575
0.00192272
0.00199256
0.00188433
0.00163322
0.00128274
0.00094032
0.000745997
0.000810632
0.00078764
0.000792202
0.000716588
0.000719038
0.00181043
0.00181601
0.00181467
0.00182135
0.00181761
0.00181806
0.00181678
0.00182161
0.00182471
0.00183413
0.00186583
0.00192195
0.001994
0.00189814
0.00166244
0.00130723
0.000953673
0.000753378
0.000802072
0.000775034
0.000802597
0.000714742
0.000726952
0.00181349
0.00181598
0.00181774
0.00182148
0.00181891
0.00181907
0.00181847
0.00181983
0.00182423
0.00183475
0.00186558
0.00192179
0.00199509
0.00191095
0.00168776
0.00131988
0.000956103
0.000751315
0.000789373
0.000770144
0.000803474
0.000721264
0.000743424
0.00181197
0.00181623
0.00181282
0.00181973
0.00181652
0.00181638
0.00181758
0.001821
0.00182423
0.00183303
0.00186596
0.00192125
0.00199571
0.00191637
0.00169932
0.00133618
0.000969765
0.000757037
0.000788521
0.000770075
0.000804397
0.000749165
0.000756517
0.00180787
0.00181396
0.00181484
0.00182197
0.00181672
0.00181834
0.00181704
0.00182066
0.00182407
0.00183507
0.00186675
0.00192243
0.00199644
0.00191853
0.00170285
0.00133044
0.000960571
0.000757916
0.000788936
0.000775032
0.000791193
0.000746534
0.00079658
0.00181022
0.0018139
0.00181298
0.00182142
0.00181681
0.00181909
0.00181617
0.00182082
0.00182437
0.00183542
0.00186491
0.00192008
0.00199624
0.00193078
0.00173097
0.00136727
0.000987774
0.000770317
0.00078627
0.000785816
0.000794666
0.000779529
0.000844808
0.00180831
0.00181359
0.00181608
0.00181816
0.00181696
0.00181513
0.00181638
0.00182269
0.00182601
0.00183412
0.00186298
0.00191733
0.0019955
0.00194121
0.00175635
0.00140464
0.00100636
0.000774908
0.000786142
0.000787982
0.000816894
0.000819171
0.000890826
0.00180745
0.00181672
0.00181529
0.00181598
0.00181777
0.00181445
0.00181435
0.00182431
0.00182694
0.00183266
0.00186094
0.00191412
0.00199407
0.00195095
0.00178007
0.00144498
0.00104809
0.000789844
0.000805421
0.000778188
0.000816479
0.000861552
0.000940405
0.00180693
0.00181073
0.00181361
0.00181447
0.00181487
0.00181569
0.00181509
0.00182612
0.00182675
0.00183262
0.00185852
0.00191012
0.00199224
0.00195923
0.00180275
0.00148637
0.00109739
0.000810008
0.000822415
0.000773432
0.000822911
0.00091485
0.000993051
0.0018062
0.0018124
0.0018159
0.00181035
0.00181477
0.00181809
0.00181968
0.00182459
0.00182863
0.00183184
0.00185546
0.00190559
0.0019894
0.00196778
0.00182383
0.00152941
0.00115182
0.000854863
0.000866679
0.000781017
0.000812244
0.000943096
0.0010379
0.00180755
0.00181347
0.00181802
0.00181329
0.00181475
0.00181807
0.00182318
0.00182018
0.00182611
0.00183098
0.00185232
0.00190022
0.00198626
0.00197426
0.00184556
0.00157375
0.00122097
0.000894822
0.000919341
0.000789607
0.00082763
0.000972062
0.00108297
0.001808
0.00181164
0.00181749
0.00182111
0.00181212
0.00181636
0.00182158
0.00182032
0.00182485
0.00183068
0.00184819
0.00189432
0.00198135
0.00198178
0.00186635
0.00161934
0.00127214
0.00094042
0.000912564
0.000806229
0.00083796
0.00100338
0.00110789
0.00180781
0.00180689
0.00181523
0.00181826
0.0018114
0.00181117
0.00181516
0.00182146
0.00182445
0.00182901
0.00184433
0.00188827
0.00197592
0.0019868
0.00188768
0.00166938
0.00133265
0.000974452
0.000880067
0.000831092
0.000832571
0.00104169
0.00115164
0.00180605
0.00180238
0.00181132
0.00180581
0.00181041
0.00181132
0.00181514
0.00182172
0.00182625
0.0018264
0.00184153
0.00188195
0.00196761
0.0019931
0.00190867
0.00171972
0.00140987
0.00102398
0.000889638
0.000841315
0.000871841
0.0010812
0.00117243
0.00179826
0.00180533
0.00180287
0.00180452
0.00180902
0.00180762
0.00181588
0.00182304
0.00182661
0.00182607
0.00183951
0.00187558
0.00195782
0.0019962
0.00193009
0.00176951
0.00149714
0.00111463
0.000924383
0.000866819
0.000946756
0.00110946
0.00121785
0.00178791
0.0018105
0.0017936
0.0018083
0.00180435
0.00181176
0.00181586
0.0018195
0.00182493
0.00182499
0.00183754
0.00186917
0.00194639
0.00199867
0.00195024
0.00181612
0.00158485
0.00124044
0.000977254
0.000901338
0.00099174
0.00116166
0.00123711
0.00179458
0.00181593
0.00179647
0.00181522
0.00181205
0.00181273
0.00181729
0.00181476
0.00181912
0.00182397
0.0018355
0.00186266
0.0019316
0.00199859
0.00197048
0.00186025
0.00166935
0.00137538
0.00106545
0.000960864
0.00105651
0.0012123
0.00129245
0.00181812
0.00182811
0.00180632
0.00182802
0.00181403
0.00181275
0.00181233
0.00181007
0.00181654
0.00182308
0.00183336
0.00185621
0.00191654
0.00199237
0.00198778
0.00190172
0.00174686
0.00150619
0.00119899
0.00102953
0.00110484
0.00126026
0.00137849
0.00181972
0.00182558
0.00180765
0.0018249
0.00181739
0.00181261
0.00180228
0.00180579
0.00181437
0.00182164
0.00183079
0.00184965
0.00189853
0.0019857
0.00199914
0.00193897
0.00181672
0.00162604
0.00136089
0.0011317
0.00112151
0.00132536
0.00146617
0.00182418
0.00182883
0.00180645
0.00181113
0.00181708
0.00181179
0.00179992
0.00180395
0.00181255
0.00181958
0.00182728
0.00184311
0.00188198
0.00196582
0.00200602
0.00197523
0.00188019
0.00173055
0.00152082
0.00128124
0.00116959
0.00135381
0.00157201
0.0018062
0.00180757
0.00180439
0.00180579
0.00181293
0.00180981
0.00180019
0.00180359
0.00181101
0.00181679
0.00182322
0.00183622
0.00186685
0.00194487
0.00199635
0.00199746
0.001938
0.00182291
0.00165948
0.0014422
0.00128445
0.00136397
0.00161763
0.001797
0.00179724
0.00180285
0.00180317
0.00180725
0.00180727
0.00180086
0.00180387
0.00180947
0.00181378
0.00181897
0.00182967
0.00185238
0.00191462
0.00198257
0.002011
0.00197592
0.0018997
0.00177832
0.00161343
0.00142616
0.0013831
0.00168144
0.00179024
0.00179171
0.00180208
0.00180186
0.0018019
0.0018044
0.00180064
0.00180368
0.00180759
0.00181061
0.00181496
0.00182343
0.00184059
0.00188023
0.00195834
0.00200568
0.00200978
0.0019548
0.00187207
0.00175448
0.00160268
0.00148645
0.00163508
0.00178517
0.00178887
0.00180192
0.00180047
0.00179775
0.00180126
0.00179942
0.00180237
0.00180511
0.00180732
0.00181075
0.00181742
0.00183023
0.00185568
0.00191345
0.00198191
0.00202225