/*--------------------------------*- C++ -*----------------------------------*\
  =========                 |
  \\      /  F ield         | OpenFOAM: The Open Source CFD Toolbox
   \\    /   O peration     | Website:  https://openfoam.org
    \\  /    A nd           | Version:  7
     \\/     M anipulation  |
\*---------------------------------------------------------------------------*/
FoamFile
{
    version     2.0;
    format      ascii;
    class       volScalarField;
    location    "79";
    object      omega;
}
// * * * * * * * * * * * * * * * * * * * * * * * * * * * * * * * * * * * * * //

dimensions      [0 0 -1 0 0 0 0];

internalField   nonuniform List<scalar> 
12842
(
3.14604
2.84677
2.65854
2.53476
2.44105
2.37741
2.32814
2.29366
2.27009
2.25112
2.24204
2.2319
2.23249
2.23581
2.25524
2.27743
2.33516
2.40297
2.4817
2.58044
2.65725
2.75499
2.8154
3.13388
2.82786
2.63138
2.52099
2.43551
2.37531
2.32703
2.29301
2.2691
2.2503
2.24119
2.23111
2.23224
2.23725
2.25264
2.27708
2.32929
2.40293
2.47664
2.57908
2.65315
2.75278
2.81074
3.11574
2.80916
2.60429
2.48749
2.40994
2.35801
2.31445
2.28459
2.26208
2.24559
2.23723
2.2286
2.23047
2.23736
2.2529
2.27961
2.32989
2.40691
2.48228
2.58883
2.66286
2.76485
2.82159
3.08874
2.7801
2.59173
2.47228
2.39446
2.34839
2.30791
2.28041
2.25887
2.24365
2.23558
2.22769
2.22992
2.23737
2.25405
2.28396
2.33495
2.41581
2.49068
2.60052
2.66831
2.76879
2.82532
3.06911
2.74132
2.55295
2.44855
2.37581
2.33047
2.29301
2.27016
2.25101
2.23896
2.23153
2.22581
2.22897
2.23827
2.25761
2.29096
2.34459
2.42749
2.50351
2.61791
2.69635
2.79095
2.84362
3.04132
2.7194
2.53685
2.42662
2.35688
2.31836
2.28524
2.26545
2.24751
2.23687
2.22973
2.22497
2.22862
2.23896
2.25915
2.29477
2.35157
2.43835
2.5199
2.62719
2.7039
2.80835
2.86142
3.0169
2.68095
2.50498
2.40841
2.34179
2.30452
2.27301
2.25604
2.24036
2.23249
2.22599
2.22339
2.22797
2.24038
2.26335
2.30112
2.36049
2.44722
2.53837
2.65109
2.7301
2.83328
2.88576
2.99382
2.6614
2.48823
2.39067
2.32642
2.29239
2.26443
2.25166
2.2373
2.2306
2.22426
2.22253
2.22748
2.24038
2.26481
2.30477
2.36858
2.46119
2.55603
2.66091
2.75526
2.85517
2.91158
2.96608
2.63114
2.46461
2.37488
2.31474
2.28254
2.25607
2.24456
2.23188
2.22714
2.2213
2.22116
2.22661
2.24215
2.26531
2.3053
2.37036
2.46403
2.57174
2.67151
2.76969
2.87503
2.93302
2.9435
2.60712
2.44702
2.36227
2.30376
2.27282
2.24856
2.24044
2.2294
2.22557
2.21991
2.22048
2.22625
2.24235
2.26607
2.3085
2.3771
2.47451
2.57672
2.68316
2.79285
2.89384
2.95314
2.91155
2.58202
2.42806
2.34738
2.29446
2.26547
2.2426
2.23509
2.22506
2.22253
2.21784
2.21919
2.2261
2.24276
2.2677
2.31073
2.38116
2.4796
2.59094
2.69793
2.80484
2.91985
2.98334
2.8887
2.55788
2.41092
2.33767
2.28535
2.25723
2.23571
2.23059
2.2221
2.22035
2.21642
2.21828
2.22606
2.24335
2.27077
2.31712
2.39153
2.49438
2.59768
2.71841
2.83638
2.9497
3.01583
2.85891
2.53742
2.3961
2.3241
2.27769
2.25103
2.23094
2.22594
2.21828
2.21739
2.21432
2.21672
2.22556
2.24483
2.27408
2.32165
2.39655
2.50549
2.61749
2.74649
2.85673
2.9876
3.06201
2.83522
2.5155
2.38043
2.31576
2.27005
2.24435
2.2253
2.22179
2.21506
2.21506
2.21272
2.21559
2.22555
2.24592
2.27903
2.32866
2.40973
2.51976
2.6284
2.76744
2.8981
3.03649
3.11591
2.81003
2.49834
2.36889
2.30436
2.26377
2.23918
2.22137
2.21789
2.21214
2.2124
2.21071
2.21407
2.22456
2.24605
2.28344
2.33257
2.41617
2.54117
2.65822
2.81404
2.92773
3.08687
3.17934
2.78642
2.47974
2.35545
2.29651
2.25735
2.23355
2.21694
2.2145
2.20912
2.21023
2.20901
2.21291
2.2254
2.25048
2.2886
2.34046
2.43296
2.55393
2.67457
2.83786
2.98624
3.15482
3.2594
2.76549
2.46519
2.34609
2.28729
2.25206
2.2291
2.21357
2.2111
2.20706
2.20806
2.20736
2.21157
2.22506
2.25111
2.29973
2.34493
2.44156
2.58347
2.71687
2.89946
3.02882
3.2262
3.34376
2.74395
2.44984
2.33463
2.27986
2.24637
2.22409
2.20998
2.20833
2.20453
2.20618
2.20574
2.21053
2.22562
2.25
2.30147
2.35501
2.46343
2.5991
2.73991
2.93162
3.10797
3.31019
3.4503
2.72593
2.43759
2.32687
2.2722
2.24183
2.21985
2.20696
2.20514
2.2029
2.2044
2.20447
2.20942
2.22533
2.24886
2.29892
2.36145
2.47509
2.63614
2.79519
3.00857
3.16554
3.40846
3.56546
2.70758
2.42516
2.3167
2.26548
2.23646
2.21534
2.20396
2.20259
2.20089
2.20286
2.2031
2.20868
2.22714
2.24997
2.29853
2.37417
2.50009
2.6558
2.82504
3.05205
3.26555
3.51727
3.70553
2.69202
2.41474
2.31026
2.25868
2.23227
2.21109
2.20101
2.19947
2.19929
2.20124
2.20204
2.2077
2.22735
2.25128
2.30149
2.38377
2.5169
2.70195
2.8948
3.14017
3.34323
3.63905
3.86129
2.67725
2.40494
2.3009
2.25275
2.22719
2.20709
2.19846
2.19694
2.19753
2.19981
2.20092
2.20742
2.22824
2.25541
2.31047
2.396
2.54267
2.72615
2.93175
3.20468
3.46249
3.78799
4.05857
2.66493
2.39601
2.29547
2.2464
2.22283
2.20288
2.19539
2.19393
2.19576
2.19823
2.19994
2.20641
2.22725
2.25752
2.32197
2.4106
2.57047
2.78093
3.01528
3.30102
3.57625
3.95008
4.26333
2.6544
2.38957
2.28894
2.24244
2.2194
2.20023
2.19374
2.19186
2.1945
2.19684
2.19912
2.2066
2.2293
2.26083
2.3337
2.41904
2.59108
2.8124
3.06353
3.40502
3.72362
4.14873
4.54961
2.64742
2.38423
2.28577
2.23898
2.21656
2.1982
2.19216
2.19021
2.19356
2.19581
2.19853
2.20606
2.23057
2.26535
2.34184
2.43554
2.62949
2.88128
3.16904
3.51185
3.89971
4.4134
4.84172
2.64019
2.37999
2.28197
2.23669
2.2143
2.19684
2.19103
2.18897
2.19279
2.19465
2.19782
2.20608
2.23105
2.26895
2.35616
2.44528
2.65069
2.92148
3.23591
3.68157
4.10345
4.64718
5.18084
2.6325
2.37496
2.27878
2.23315
2.2114
2.19519
2.18944
2.18759
2.19175
2.19362
2.19706
2.20597
2.23223
2.27558
2.37611
2.46651
2.69534
3.01052
3.36233
3.79821
4.31656
5.00595
5.57069
2.62696
2.37096
2.27572
2.23111
2.20921
2.19412
2.18838
2.18663
2.19086
2.1924
2.19606
2.20536
2.23288
2.28539
2.37962
2.48037
2.7216
3.06301
3.46843
4.03713
4.61971
5.32499
5.9539
2.61882
2.36627
2.27215
2.2275
2.20657
2.19281
2.18707
2.18551
2.1895
2.19101
2.19489
2.20481
2.23183
2.28769
2.38023
2.51215
2.78284
3.18028
3.63922
4.20815
4.87526
5.68464
6.3362
2.61407
2.36267
2.26964
2.22554
2.20454
2.19208
2.18629
2.18463
2.18815
2.18946
2.19353
2.20532
2.23244
2.28746
2.37763
2.53349
2.8204
3.24433
3.77
4.45807
5.17696
6.00315
6.68313
2.60639
2.35836
2.26568
2.22206
2.20214
2.19109
2.18525
2.18343
2.18604
2.18753
2.19224
2.20511
2.23293
2.29327
2.39286
2.58408
2.90747
3.38155
3.94629
4.63712
5.43139
6.3091
7.01608
2.60156
2.3552
2.26322
2.22008
2.20034
2.19057
2.18451
2.18212
2.18435
2.18572
2.19118
2.20519
2.23505
2.29808
2.41151
2.61691
2.95879
3.45549
4.08617
4.87486
5.69114
6.59976
7.30775
2.59514
2.35115
2.25911
2.21683
2.19837
2.18964
2.18313
2.18042
2.18153
2.18388
2.19039
2.20551
2.23768
2.31319
2.45904
2.69351
3.07436
3.61101
4.25312
5.03159
5.92995
6.83347
7.56887
2.59002
2.34819
2.25657
2.21507
2.19697
2.18893
2.18181
2.17828
2.17993
2.18236
2.19019
2.20847
2.25441
2.35265
2.50781
2.7465
3.13787
3.69486
4.3917
5.26207
6.1279
7.07684
7.81074
2.58491
2.34429
2.25258
2.21205
2.19542
2.18794
2.17981
2.17629
2.17805
2.18115
2.19053
2.21469
2.27364
2.38512
2.56553
2.84495
3.27277
3.85766
4.55861
5.38652
6.34583
7.26803
8.00861
2.57971
2.34123
2.25031
2.21053
2.19388
2.18628
2.17794
2.17403
2.1766
2.18143
2.1955
2.23633
2.31619
2.45153
2.64647
2.92335
3.34606
3.94123
4.67577
5.60004
6.5025
7.44756
8.18658
2.57557
2.33731
2.24683
2.20757
2.19223
2.18511
2.17551
2.17215
2.17658
2.18389
2.20709
2.26068
2.35316
2.49662
2.70294
3.01569
3.48304
4.10461
4.85102
5.70937
6.68646
7.61016
8.3508
2.57066
2.33397
2.24514
2.20578
2.18978
2.18322
2.17338
2.17172
2.18009
2.194
2.22929
2.30259
2.41547
2.58077
2.80678
3.12255
3.5734
4.18616
4.94687
5.90642
6.83551
7.76005
8.47367
2.56687
2.32986
2.2422
2.20262
2.18739
2.18098
2.17281
2.17372
2.18946
2.21115
2.25825
2.34457
2.46691
2.6352
2.86291
3.19598
3.6854
4.34309
5.12718
6.01461
6.9973
7.87086
8.53333
2.56237
2.32614
2.24074
2.19965
2.18454
2.17888
2.17408
2.18033
2.20777
2.23811
2.29796
2.40289
2.54216
2.7274
2.97448
3.32403
3.80942
4.43746
5.22196
6.20115
7.14538
7.93383
8.59779
2.55867
2.32166
2.2378
2.19653
2.18184
2.17886
2.17924
2.19654
2.23297
2.27184
2.34328
2.45836
2.60196
2.78629
3.03244
3.38693
3.88216
4.56932
5.41648
6.32382
7.23572
8.01843
8.71848
2.5544
2.31761
2.23613
2.1934
2.17952
2.18155
2.19252
2.21906
2.2667
2.31465
2.39738
2.52734
2.68313
2.88018
3.14336
3.51388
4.03441
4.71871
5.52499
6.49885
7.35372
8.21031
9.02719
2.55058
2.31279
2.23276
2.19073
2.17939
2.18889
2.21247
2.25106
2.30647
2.36261
2.45465
2.58994
2.74434
2.93794
3.1999
3.57942
4.10999
4.81058
5.72697
6.61879
7.54208
8.62661
10.4996
2.54623
2.30855
2.23029
2.18746
2.18248
2.20446
2.24088
2.28894
2.35316
2.41746
2.51774
2.66276
2.82574
3.02942
3.30952
3.71154
4.26786
5.02808
5.87288
6.84991
8.15281
11.5634
20.2466
2.542
2.30329
2.22742
2.18697
2.18925
2.22577
2.27593
2.33369
2.40367
2.4748
2.58084
2.72616
2.88268
3.08284
3.36404
3.77628
4.35474
5.15232
6.08315
7.30185
10.4073
23.2956
38.2483
2.53697
2.29871
2.22441
2.18731
2.20497
2.25569
2.31755
2.38297
2.45898
2.53619
2.64678
2.7966
2.96021
3.16956
3.4723
3.91734
4.56691
5.43048
6.45547
9.18984
21.2851
45.5086
59.9716
2.53202
2.29269
2.22131
2.19196
2.22426
2.2905
2.36426
2.43539
2.51514
2.59696
2.70951
2.85568
3.00964
3.21703
3.5259
3.99417
4.68283
5.65712
7.68749
16.0843
38.6425
66.6986
79.9888
2.52602
2.28821
2.22253
2.20236
2.25285
2.3317
2.41406
2.49014
2.57341
2.65877
2.77241
2.91916
3.08034
3.29916
3.63539
4.16856
5.00265
6.50034
10.7032
26.0083
62.6686
89.6989
99.1821
2.51992
2.28178
2.22367
2.21752
2.2841
2.37727
2.46811
2.54624
2.63155
2.71888
2.83147
2.97206
3.12322
3.34243
3.69411
4.26884
5.23277
7.44981
16.7096
45.4006
84.4339
103.431
112.511
2.5131
2.2794
2.23148
2.24144
2.32496
2.42877
2.52473
2.60489
2.69165
2.78021
2.89059
3.02854
3.1852
3.41907
3.80949
4.50058
5.88238
10.0438
25.0451
59.9377
100.72
118.153
125.188
2.50574
2.27647
2.24342
2.26989
2.36775
2.4824
2.58191
2.66143
2.74867
2.83614
2.94335
3.07405
3.22432
3.45939
3.87362
4.64293
6.35095
12.2188
34.2776
79.764
114.412
126.515
131.748
2.4988
2.27601
2.26391
2.30586
2.41494
2.53697
2.63674
2.71543
2.80244
2.88893
2.99158
3.11809
3.27202
3.52443
3.99148
4.93587
7.37983
16.2873
42.5675
92.764
121.607
130.66
135.639
2.49289
2.27651
2.28782
2.34437
2.46221
2.59075
2.68922
2.76578
2.85223
2.93545
3.03419
3.15425
3.30588
3.56297
4.06274
5.12511
8.00143
18.4198
50.4528
104.959
127.335
133.89
139.153
2.4887
2.28122
2.31866
2.38786
2.51077
2.64375
2.73813
2.81245
2.89753
2.97846
3.07176
3.18797
3.34321
3.62075
4.18979
5.46551
9.10751
22.3093
59.8272
114.476
131.679
137.41
142.396
2.48658
2.29406
2.35277
2.43218
2.55803
2.69387
2.78337
2.85496
2.93834
3.01536
3.10453
3.21602
3.37238
3.66157
4.2699
5.69436
9.851
24.6329
65.2789
120.243
136.287
141.36
146.298
2.48597
2.31573
2.39211
2.47935
2.60542
2.74264
2.82545
2.89421
2.97473
3.04914
3.13307
3.24203
3.40302
3.71425
4.40362
6.08674
11.16
28.3927
75.7405
129.663
141.567
146.392
150.365
2.48654
2.34419
2.43237
2.52384
2.6482
2.78422
2.86097
2.92651
3.00378
3.07508
3.15529
3.26165
3.42593
3.75376
4.49255
6.38172
12.1533
30.8759
80.3195
135.433
146.159
150.029
153.601
2.49208
2.37632
2.4732
2.56706
2.6885
2.8225
2.89315
2.9556
3.02908
3.09846
3.17449
3.27941
3.44764
3.79317
4.59895
6.62237
12.9628
33.4881
85.1705
136.186
150.687
154.482
156.492
2.50286
2.41312
2.5157
2.61019
2.72765
2.85766
2.92296
2.98184
3.05144
3.11869
3.19166
3.2953
3.46839
3.83328
4.68301
6.8847
13.7979
36.0297
86.5812
137.067
155.466
159.639
161.057
2.51937
2.45302
2.55889
2.65244
2.76479
2.88981
2.95011
3.0054
3.07076
3.13656
3.20662
3.30988
3.48836
3.87282
4.78779
7.04052
14.0004
37.6179
87.5908
138.618
156.187
160.811
164.604
2.53927
2.49516
2.60217
2.69401
2.8003
2.91908
2.9748
3.02622
3.08761
3.1522
3.21998
3.32309
3.50783
3.91319
4.85961
7.19404
14.1749
38.8574
88.3815
140.005
157.024
161.894
166.629
2.56349
2.53857
2.64499
2.73383
2.83339
2.94495
2.9972
3.04469
3.10218
3.16573
3.2319
3.33532
3.52659
3.95185
4.94427
7.26018
14.5416
39.4589
89.1452
139.488
157.893
163.852
169.303
2.58878
2.58227
2.6862
2.77251
2.86434
2.96874
3.01688
3.06082
3.11473
3.17756
3.24247
3.3465
3.54504
3.99156
5.00968
7.3014
14.7795
40.8924
87.9534
140.335
157.974
165.229
169.059
2.617
2.62519
2.72608
2.80842
2.89274
2.98883
3.03491
3.0749
3.12571
3.18795
3.25214
3.35692
3.56278
4.0299
5.075
7.41161
14.9162
40.7081
87.822
138.558
158.006
164.447
169.297
2.64399
2.66721
2.76296
2.84289
2.91855
3.00776
3.05001
3.08742
3.13521
3.19679
3.26082
3.36653
3.57982
4.0673
5.15745
7.55398
15.4984
41.3415
88.8469
138.276
159.325
164.214
171.395
2.67289
2.70671
2.79802
2.87374
2.94202
3.02317
3.06417
3.0981
3.14357
3.20484
3.2684
3.37527
3.59673
4.10754
5.23975
7.95345
16.3685
42.9886
88.4506
138.367
157.689
164.093
170.25
2.69896
2.74437
2.8295
2.90288
2.96282
3.03776
3.07558
3.10792
3.151
3.21165
3.27588
3.38372
3.61187
4.14248
5.36778
8.47799
18.0169
44.3215
89.9642
135.987
157.428
164.326
171.076
2.72626
2.77872
2.85884
2.92803
2.98155
3.04985
3.08647
3.11633
3.15745
3.21784
3.28177
3.39082
3.62751
4.1855
5.52761
9.24611
20.02
47.1651
88.9944
132.392
157.468
165.091
169.129
2.75013
2.81015
2.88512
2.95142
2.99814
3.06066
3.09521
3.12397
3.16352
3.22345
3.28816
3.39807
3.64118
4.22387
5.71421
10.1851
22.2569
48.4225
89.859
128.427
154.609
165.202
168.938
2.77466
2.8386
2.90892
2.97072
3.01281
3.07053
3.10359
3.13097
3.16852
3.22805
3.29406
3.40404
3.65494
4.27031
5.97657
11.1079
24.0781
49.823
89.6208
124.546
150.121
162.318
169.77
2.7962
2.8632
2.9307
2.98882
3.02618
3.07864
3.1105
3.13685
3.17369
3.23284
3.29936
3.41017
3.66765
4.31706
6.20659
11.8364
25.3638
49.6379
88.9907
120.812
144.608
157.359
168.828
2.81761
2.88591
2.9501
3.00295
3.03797
3.08689
3.11733
3.14281
3.17766
3.23603
3.30367
3.41543
3.68044
4.36977
6.40424
12.5452
26.3073
50.5823
88.4154
117.191
138.501
151.074
165.324
2.8374
2.90445
2.96795
3.01667
3.04911
3.0936
3.12304
3.1475
3.18211
3.24008
3.30388
3.42179
3.69125
4.41669
6.60285
12.6621
26.2211
49.9194
87.932
113.397
131.746
143.761
159.645
2.85593
2.92225
2.98449
3.02717
3.05897
3.10097
3.12927
3.15259
3.18555
3.2425
3.3044
3.42448
3.69952
4.45453
6.67773
12.7444
26.5052
49.9178
87.3644
109.177
124.456
135.636
152.088
2.87447
2.9367
2.99895
3.03792
3.06904
3.10702
3.1344
3.15664
3.18954
3.24388
3.30518
3.42562
3.70503
4.47991
6.71604
12.7855
26.6777
49.9046
86.1155
104.222
116.43
126.576
142.871
2.89132
2.95094
3.01358
3.04629
3.07777
3.11455
3.14055
3.16133
3.19258
3.24472
3.30575
3.42814
3.70892
4.49901
6.73441
12.8283
26.3161
50.0844
83.8515
98.3565
107.716
116.624
132.25
2.90814
2.96317
3.02589
3.05586
3.08713
3.12019
3.14557
3.16505
3.1963
3.24682
3.30606
3.42781
3.70812
4.49745
6.7533
12.8503
26.2564
50.7209
80.3679
91.6152
98.5397
106.066
120.474
2.92503
2.97588
3.03836
3.06313
3.09569
3.12777
3.15185
3.16963
3.19931
3.24661
3.30783
3.42937
3.70964
4.50336
6.74486
12.8656
26.3223
50.8511
75.7294
84.038
88.9193
95.1151
108.231
2.93907
2.98645
3.04913
3.07212
3.1038
3.13396
3.15626
3.17318
3.20234
3.24833
3.30711
3.42829
3.70764
4.50728
6.76938
12.8889
25.7957
49.7027
69.9967
75.9949
79.5362
84.5694
96.3156
2.95597
2.99849
3.06023
3.07945
3.1129
3.14088
3.16438
3.17772
3.20607
3.24732
3.30756
3.42832
3.70782
4.49974
6.75325
12.5955
24.5494
46.9969
63.6115
67.729
70.327
74.6698
85.7799
2.9687
3.00989
3.06894
3.08822
3.12028
3.14979
3.16813
3.18206
3.21106
3.24735
3.30755
3.42818
3.70979
4.49858
6.73058
12.0863
22.8638
43.3113
56.7299
59.6741
61.9409
66.098
76.7064
2.985
3.0203
3.08035
3.09741
3.13183
3.15785
3.17951
3.18713
3.21166
3.24725
3.30717
3.42821
3.70758
4.49886
6.62733
11.447
20.9957
39.2386
50.0038
52.1623
54.3082
58.8491
69.3547
3.00151
3.03747
3.0922
3.10919
3.14045
3.16749
3.18471
3.19566
3.21282
3.24747
3.30742
3.42881
3.70814
4.47995
6.46981
10.7481
19.066
35.0031
43.5399
45.4435
47.8741
53.0362
63.2773
3.02019
3.05003
3.10027
3.1204
3.14476
3.17117
3.19073
3.19674
3.21436
3.24716
3.30577
3.42708
3.70485
4.44443
6.27813
10.0384
17.2729
31.0395
37.8352
39.7775
42.5192
48.5065
58.418
3.02956
3.05589
3.1078
3.12944
3.15023
3.17321
3.19209
3.19819
3.21501
3.24725
3.30548
3.42682
3.69747
4.3971
6.06904
9.35434
15.6205
27.4208
32.9148
35.0506
38.3291
44.9681
54.265
3.03669
3.06262
3.1081
3.13015
3.15449
3.17534
3.19374
3.20025
3.21559
3.24678
3.30654
3.4271
3.68761
4.34222
5.85609
8.73415
14.2435
24.3301
28.9566
31.4534
35.1085
42.2143
50.8969
3.03508
3.07173
3.10957
3.13147
3.15974
3.17627
3.19355
3.20367
3.21591
3.24692
3.30485
3.42498
3.67541
4.28286
5.6494
8.18215
13.0781
21.8388
25.8248
28.642
32.7765
39.9838
48.0264
3.03599
3.07066
3.11398
3.13576
3.15826
3.17729
3.19468
3.20634
3.21661
3.24767
3.30652
3.42473
3.66278
4.22385
5.45736
7.72778
12.1936
19.823
23.5278
26.6699
31.0506
38.2856
45.8633
3.03942
3.07134
3.11579
3.1349
3.1582
3.17735
3.19537
3.20457
3.21668
3.24744
3.3049
3.42551
3.64879
4.16558
5.28178
7.34361
11.4841
18.3699
21.7623
25.1589
29.9252
36.8872
44.038
3.03955
3.07402
3.11511
3.1358
3.15828
3.17963
3.19428
3.20425
3.21784
3.2466
3.30573
3.42562
3.63648
4.11381
5.12964
7.05951
10.9652
17.2794
20.5874
24.1944
29.0228
36.021
42.8137
3.04494
3.07427
3.11781
3.13905
3.15825
3.17741
3.19436
3.20424
3.21552
3.24626
3.30543
3.42351
3.6231
4.0647
4.99323
6.81711
10.5442
16.4416
19.6596
23.3116
28.5118
35.182
41.4305
3.04049
3.07364
3.11667
3.13593
3.15789
3.17671
3.1959
3.20519
3.21528
3.2457
3.30391
3.42187
3.61313
4.02478
4.88447
6.66072
10.3001
15.933
19.1281
22.8423
27.8252
34.7371
40.4039
3.04092
3.07666
3.11784
3.1362
3.15779
3.17779
3.19304
3.20231
3.21535
3.24454
3.30203
3.41867
3.60199
3.98955
4.7917
6.513
10.0503
15.4351
18.6096
22.2901
26.933
33.8775
38.8352
3.03939
3.07519
3.11318
3.13597
3.15651
3.17639
3.19257
3.20459
3.21472
3.24342
3.30093
3.4168
3.5945
3.95976
4.71677
6.43876
9.92746
15.1907
18.3806
22.0439
26.6797
33.3975
37.6328
3.03824
3.07419
3.11632
3.13739
3.15638
3.1769
3.19192
3.20207
3.21421
3.24327
3.29739
3.41289
3.58703
3.94271
4.67534
6.33982
9.70688
14.845
17.9704
21.4761
25.9637
32.2022
35.7236
3.04152
3.07382
3.11196
3.133
3.1553
3.1731
3.19162
3.20209
3.2136
3.24013
3.29766
3.41382
3.58684
3.94038
4.67022
6.37199
9.85106
14.903
17.9845
21.5105
26.3047
31.6138
34.4508
3.03628
3.07521
3.11245
3.13262
3.15448
3.17245
3.19196
3.20117
3.2121
3.23879
3.29544
3.40575
3.57223
3.90131
4.57629
6.15689
9.46289
14.3999
17.5109
20.8394
25.9265
29.9818
32.2721
3.03984
3.06874
3.10594
3.1346
3.15185
3.17372
3.1911
3.19825
3.21008
3.23918
3.29243
3.39727
3.55797
3.86596
4.49195
5.95301
9.20949
14.1297
17.0497
20.366
25.3123
28.4502
30.3078
3.03245
3.06761
3.104
3.13466
3.15054
3.17383
3.18793
3.19608
3.20698
3.23677
3.28726
3.38772
3.54258
3.83089
4.41042
5.74622
8.70168
13.619
16.4239
19.9146
24.3712
26.9331
28.4655
3.039
3.06963
3.10495
3.13111
3.14714
3.17234
3.18476
3.18903
3.2033
3.23184
3.28154
3.3776
3.5264
3.79616
4.33126
5.54826
8.20274
13.1226
15.7078
19.4299
23.3303
25.3927
26.654
3.03015
3.07017
3.10276
3.12676
3.14478
3.1682
3.17831
3.18698
3.19497
3.2261
3.27476
3.36595
3.50816
3.75987
4.25149
5.34995
7.69392
12.1559
14.7679
18.8241
22.2263
23.9243
24.9768
3.02999
3.06418
3.09845
3.11763
3.14567
3.16215
3.16779
3.18743
3.19208
3.21937
3.2669
3.35382
3.4888
3.72253
4.17031
5.15571
7.16772
11.3959
13.7205
18.2382
21.1093
22.4594
23.3267
3.02413
3.05688
3.0921
3.10363
3.14201
3.15538
3.16423
3.18152
3.18867
3.21
3.25834
3.3395
3.46628
3.68204
4.08496
4.95447
6.79168
10.5689
13.4648
17.5399
20.0024
21.1153
21.8205
3.01354
3.04875
3.08339
3.09897
3.13211
3.14685
3.16437
3.1731
3.18236
3.20276
3.24937
3.32391
3.44232
3.63983
3.99773
4.74416
6.37612
9.8728
13.5044
16.7721
18.8685
19.8143
20.4137
2.99986
3.03386
3.07298
3.09888
3.12249
3.13758
3.15439
3.16346
3.16974
3.19654
3.23716
3.30516
3.4148
3.59392
3.90774
4.53357
5.9012
9.06845
12.8111
15.7993
17.736
18.5995
19.1082
2.98975
3.0208
3.0651
3.09092
3.10715
3.13079
3.14206
3.15041
3.15899
3.18651
3.22359
3.28554
3.38597
3.54681
3.81893
4.3348
5.42924
8.01776
11.6901
14.6029
16.5238
17.4179
17.914
2.97612
3.01233
3.05192
3.06484
3.09507
3.1205
3.12873
3.14236
3.14835
3.1743
3.20669
3.26231
3.35298
3.49587
3.72965
4.14945
4.99922
6.91248
10.2873
13.1807
15.2185
16.2348
16.7754
2.95378
2.99217
3.03631
3.05312
3.08048
3.1041
3.1091
3.13407
3.14308
3.16064
3.18934
3.23904
3.31951
3.44491
3.64397
3.98364
4.63039
5.99522
8.74129
11.5303
13.7416
14.954
15.5955
2.91496
2.95485
3.01881
3.01734
3.06289
3.08169
3.09419
3.11969
3.12692
3.14131
3.16755
3.21186
3.28193
3.38993
3.55854
3.83181
4.31883
5.27732
7.27203
9.8515
12.0834
13.552
14.3862
2.89629
2.93818
3.00137
3.00306
3.03914
3.05958
3.08601
3.10322
3.10881
3.1215
3.14578
3.18514
3.2452
3.33695
3.47613
3.69747
4.06525
4.73684
6.07113
8.23921
10.4126
11.9744
13.0348
2.8639
2.90381
2.97834
2.99874
3.01323
3.03463
3.06498
3.07928
3.0844
3.0962
3.11867
3.15242
3.20301
3.27984
3.39592
3.56734
3.84648
4.32103
5.18613
6.75094
8.7804
10.4618
11.6131
2.86287
2.9048
2.95334
2.97876
2.99017
3.01104
3.04116
3.05346
3.05932
3.07114
3.09124
3.12006
3.16183
3.22518
3.32015
3.46008
3.66178
3.99641
4.57031
5.62929
7.17247
8.914
10.2828
2.83793
2.88075
2.91957
2.94705
2.96085
2.98004
3.00824
3.01922
3.02623
3.03791
3.05513
3.07857
3.11337
3.16491
3.24024
3.34893
3.50848
3.73496
4.11193
4.76132
5.89502
7.35208
8.88113
2.80494
2.84927
2.88339
2.91225
2.9298
2.94763
2.97386
2.98463
2.99327
3.00442
3.01883
3.03835
3.06587
3.10917
3.16959
3.24963
3.37113
3.54165
3.78504
4.18593
4.87916
5.97854
7.47115
2.75919
2.80577
2.83671
2.86681
2.88701
2.90405
2.92819
2.93946
2.94933
2.95957
2.97135
2.98666
3.00867
3.04329
3.09178
3.15269
3.23346
3.36783
3.53817
3.7849
4.20272
4.8606
6.0406
2.71114
2.76124
2.78973
2.82121
2.84278
2.8599
2.88224
2.89479
2.90602
2.91569
2.92576
2.93835
2.95583
2.9831
3.02216
3.06989
3.12656
3.2101
3.35415
3.51416
3.76132
4.15006
4.83564
2.652
2.70467
2.73063
2.76289
2.78436
2.80153
2.82165
2.83502
2.84702
2.85626
2.86461
2.87446
2.88958
2.90912
2.93795
2.97643
3.01836
3.07201
3.15607
3.30247
3.4526
3.67391
4.06258
2.59507
2.6499
2.67398
2.7065
2.72753
2.74504
2.76333
2.77744
2.79017
2.79974
2.80782
2.81577
2.82864
2.84616
2.86544
2.89388
2.92841
2.96536
3.01783
3.10359
3.24438
3.37318
3.58797
2.52513
2.57924
2.6013
2.63279
2.65254
2.66965
2.6856
2.69917
2.71164
2.72094
2.72852
2.73525
2.74395
2.75865
2.77426
2.79282
2.81844
2.84633
2.8787
2.93311
3.01198
3.13582
3.25935
2.46053
2.51368
2.5345
2.56445
2.58341
2.60035
2.61492
2.62799
2.64024
2.64983
2.65769
2.66511
2.67165
2.68243
2.69573
2.71027
2.72992
2.75183
2.77428
2.806
2.85698
2.9235
3.04026
2.37719
2.42604
2.44496
2.4719
2.48906
2.50451
2.51703
2.52839
2.53916
2.54759
2.55435
2.56128
2.56682
2.57329
2.58231
2.59221
2.60646
2.62453
2.64299
2.66002
2.69071
2.72665
2.79592
2.30421
2.3504
2.3681
2.39225
2.40859
2.42315
2.4349
2.44546
2.45568
2.46388
2.47046
2.4772
2.48363
2.48918
2.49583
2.50249
2.51197
2.5253
2.54309
2.55775
2.57594
2.59549
2.62889
2.20354
2.24295
2.25799
2.27752
2.29123
2.30295
2.31234
2.32058
2.32873
2.33512
2.33982
2.34421
2.34912
2.35359
2.3583
2.36242
2.36738
2.3744
2.3861
2.39909
2.41387
2.42541
2.44127
2.12478
2.16169
2.17498
2.19138
2.20422
2.21472
2.22334
2.2307
2.2384
2.24498
2.25001
2.25392
2.25797
2.2621
2.2666
2.2708
2.27485
2.27935
2.28608
2.29481
2.30681
2.3183
2.32867
2.00399
2.03116
2.03978
2.04968
2.05844
2.06505
2.07046
2.07455
2.07894
2.08295
2.08623
2.08849
2.09047
2.09239
2.0948
2.09733
2.1
2.10262
2.10618
2.11033
2.11683
2.12445
2.13277
1.92547
1.95215
1.96118
1.96962
1.97739
1.98314
1.98798
1.99152
1.99521
1.99874
2.00183
2.00409
2.00587
2.0075
2.00947
2.01161
2.01398
2.01625
2.01916
2.02221
2.02693
2.03269
2.04007
1.76735
1.77822
1.77478
1.77307
1.77361
1.77322
1.77374
1.7734
1.7734
1.77274
1.77287
1.77301
1.77356
1.77298
1.77301
1.77326
1.77397
1.77482
1.7762
1.77734
1.77888
1.7806
1.78371
3.07336
2.75188
2.56463
2.45536
2.37313
2.32471
2.2872
2.26652
2.24889
2.23844
2.22979
2.22257
2.22379
2.22886
2.2423
2.26827
2.31414
2.38583
2.46597
2.58389
2.64252
2.74361
2.80382
3.0846
2.7622
2.5741
2.4658
2.38578
2.33648
2.2967
2.27271
2.25257
2.23984
2.23144
2.22405
2.22527
2.23056
2.24346
2.269
2.31599
2.38905
2.46739
2.56849
2.64417
2.74602
2.79253
3.10036
2.78792
2.59979
2.48536
2.39613
2.3437
2.30091
2.27562
2.25595
2.24327
2.23554
2.22643
2.22732
2.23205
2.24526
2.27006
2.31478
2.38791
2.46088
2.56708
2.63714
2.73372
2.78802
3.11514
2.80078
2.61058
2.49372
2.40893
2.35326
2.30912
2.28362
2.26227
2.24716
2.23737
2.22782
2.2286
2.2334
2.24831
2.27229
2.32162
2.39071
2.46479
2.57183
2.64292
2.73802
2.79692
3.12664
2.82625
2.64032
2.51599
2.42337
2.36412
2.31951
2.28889
2.26751
2.25025
2.24079
2.23098
2.23171
2.23585
2.25276
2.27445
2.32791
2.39517
2.46934
2.57276
2.63889
2.7358
2.80313
3.14006
2.84587
2.64865
2.52044
2.42753
2.36836
2.32346
2.29263
2.27104
2.25224
2.24339
2.23314
2.23377
2.23723
2.25474
2.27705
2.33023
2.395
2.46908
2.57141
2.64231
2.74423
2.80942
3.14929
2.85603
2.66074
2.53468
2.44395
2.38168
2.33464
2.30022
2.27756
2.25689
2.24793
2.23538
2.23588
2.23855
2.25864
2.27981
2.33849
2.40079
2.48157
2.59197
2.66724
2.76834
2.83323
3.15072
2.85868
2.66374
2.53646
2.44311
2.37985
2.3326
2.2989
2.27662
2.25638
2.2473
2.23581
2.23591
2.23848
2.25931
2.27893
2.33692
2.4058
2.48792
2.59289
2.67272
2.77356
2.83956
2.88956
2.55789
2.40911
2.32709
2.28165
2.25063
2.23474
2.2207
2.21329
2.20635
2.20399
2.20294
2.20732
2.21975
2.24401
2.28184
2.34973
2.4573
2.62246
2.82159
3.06015
3.2063
3.40752
2.904
2.56501
2.41641
2.33268
2.28544
2.25324
2.237
2.22307
2.21485
2.20796
2.20511
2.20384
2.20812
2.21992
2.24388
2.28012
2.34471
2.44812
2.60819
2.78754
3.01369
3.14541
3.33059
2.90594
2.57173
2.42207
2.33771
2.28966
2.25711
2.23914
2.22576
2.21666
2.20988
2.20632
2.20485
2.20883
2.2198
2.24195
2.27803
2.33949
2.43843
2.58779
2.75814
2.96616
3.08919
3.26426
2.92067
2.5804
2.43001
2.34437
2.29322
2.25992
2.24138
2.22818
2.21855
2.21159
2.20751
2.20581
2.20963
2.2204
2.2418
2.27617
2.33481
2.42988
2.57052
2.7243
2.92183
3.03381
3.19555
2.92433
2.58848
2.43644
2.35028
2.29825
2.26404
2.24365
2.23102
2.2204
2.21376
2.20879
2.20685
2.21036
2.22056
2.2408
2.27397
2.32956
2.42068
2.54747
2.697
2.88275
2.98858
3.1409
2.94047
2.59912
2.44533
2.35754
2.30206
2.26739
2.24616
2.23365
2.22275
2.21584
2.21035
2.208
2.21131
2.22114
2.23957
2.27219
2.32578
2.41287
2.53139
2.66647
2.8388
2.93434
3.07759
2.94561
2.60887
2.45278
2.36481
2.30798
2.27171
2.24865
2.23649
2.22461
2.21794
2.21172
2.20912
2.21216
2.22147
2.23899
2.27201
2.32265
2.40685
2.5157
2.64515
2.80828
2.89877
3.03138
2.96353
2.62186
2.46277
2.37276
2.31256
2.27572
2.25158
2.23941
2.2273
2.22037
2.21353
2.21037
2.21315
2.22166
2.23858
2.27294
2.31927
2.39955
2.50014
2.62191
2.77521
2.8601
2.98698
2.9699
2.63327
2.47223
2.38094
2.31931
2.28068
2.25474
2.24244
2.22934
2.22252
2.21527
2.21166
2.2142
2.22184
2.23906
2.27274
2.31769
2.39648
2.4891
2.60649
2.74451
2.82141
2.93721
2.98973
2.64897
2.48285
2.39027
2.32466
2.28514
2.25791
2.24529
2.2321
2.22486
2.21711
2.21307
2.21541
2.22222
2.23999
2.26988
2.3181
2.39667
2.48215
2.59463
2.72473
2.80021
2.91392
2.9969
2.66179
2.49531
2.3988
2.33248
2.29141
2.26236
2.24915
2.23454
2.22727
2.21927
2.21457
2.21666
2.22324
2.23983
2.27014
2.31919
2.39781
2.47448
2.58449
2.69715
2.76703
2.87146
3.01843
2.68052
2.50634
2.40964
2.33828
2.29616
2.26576
2.25169
2.23726
2.22939
2.22108
2.21604
2.21796
2.22423
2.23954
2.27035
2.31963
2.40332
2.47313
2.57723
2.68181
2.75461
2.85295
3.02579
2.69417
2.52098
2.41881
2.34753
2.30438
2.27185
2.25646
2.23994
2.23171
2.22325
2.21759
2.21928
2.22513
2.24103
2.2698
2.31493
2.39286
2.46549
2.5721
2.66451
2.73859
2.83058
3.04801
2.71595
2.53354
2.43074
2.35383
2.30943
2.27546
2.25886
2.24287
2.23396
2.22522
2.21916
2.22068
2.22619
2.24137
2.26693
2.31459
2.3902
2.46301
2.573
2.65236
2.73279
2.81717
3.05527
2.72904
2.5476
2.44123
2.36488
2.31941
2.28289
2.26386
2.2455
2.23571
2.22712
2.22068
2.22208
2.2275
2.24193
2.26803
2.31232
2.39154
2.46059
2.58091
2.6489
2.74038
2.81475
2.78501
2.48231
2.33625
2.27509
2.23825
2.2108
2.24052
2.2783
2.32648
2.37697
2.45178
2.54757
2.65559
2.77166
2.8963
3.05244
3.22872
3.49113
3.77087
4.15023
4.50814
4.9566
5.35918
2.78986
2.48922
2.33951
2.27741
2.23528
2.20186
2.21661
2.24643
2.28097
2.32126
2.38496
2.47586
2.58192
2.69952
2.82507
2.98903
3.16599
3.43865
3.71933
4.10742
4.46465
4.90817
5.31083
2.7912
2.49271
2.34304
2.27824
2.23532
2.19887
2.20383
2.22321
2.2472
2.27752
2.33263
2.41486
2.51706
2.63253
2.75985
2.92144
3.098
3.36582
3.65275
4.04099
4.40365
4.84416
5.25932
2.79603
2.49607
2.34753
2.28181
2.23832
2.20028
2.19669
2.20885
2.22183
2.24249
2.28451
2.35657
2.4513
2.5621
2.68672
2.8522
3.02934
3.30436
3.58687
3.97824
4.34545
4.7844
5.19973
2.79786
2.49823
2.34978
2.28318
2.23967
2.2012
2.19471
2.19703
2.20241
2.2147
2.24745
2.3072
2.39243
2.49668
2.61954
2.78122
2.95572
3.22527
3.51243
3.90694
4.28098
4.71033
5.13816
2.80311
2.49955
2.35313
2.2861
2.2426
2.20412
2.1954
2.19333
2.19165
2.19559
2.21895
2.26735
2.34025
2.4337
2.55043
2.71011
2.88326
3.15368
3.43836
3.82792
4.21158
4.63839
5.06893
2.8052
2.50137
2.35614
2.28762
2.24549
2.20764
2.19801
2.1933
2.18729
2.18603
2.20004
2.23529
2.29609
2.37972
2.4892
2.64276
2.81145
3.07515
3.35802
3.74946
4.13813
4.55375
4.99494
2.81076
2.50226
2.35796
2.28904
2.24736
2.21095
2.19973
2.19394
2.18652
2.18162
2.18846
2.21412
2.26133
2.33106
2.43136
2.57627
2.74083
2.99983
3.28082
3.66403
4.06395
4.47248
4.91514
2.81296
2.50402
2.3612
2.29059
2.25018
2.2151
2.20345
2.19633
2.18827
2.18193
2.18446
2.1996
2.23556
2.29403
2.38309
2.51903
2.67736
2.92586
3.20055
3.57946
3.98129
4.37802
4.83023
2.81847
2.50512
2.36332
2.29149
2.25184
2.21863
2.20541
2.19834
2.19045
2.18366
2.18431
2.19257
2.21771
2.26365
2.34186
2.46428
2.61558
2.85579
3.12601
3.49624
3.90641
4.29138
4.7387
2.82095
2.5073
2.36598
2.29283
2.25368
2.22182
2.2082
2.19986
2.19221
2.1858
2.18579
2.19124
2.20759
2.24377
2.31037
2.42166
2.56547
2.79072
3.05184
3.41131
3.82072
4.19233
4.64711
2.82601
2.50888
2.36846
2.294
2.25513
2.22536
2.21051
2.20158
2.1942
2.18793
2.18782
2.19157
2.20283