/*--------------------------------*- C++ -*----------------------------------*\
  =========                 |
  \\      /  F ield         | OpenFOAM: The Open Source CFD Toolbox
   \\    /   O peration     | Website:  https://openfoam.org
    \\  /    A nd           | Version:  7
     \\/     M anipulation  |
\*---------------------------------------------------------------------------*/
FoamFile
{
    version     2.0;
    format      ascii;
    class       volScalarField;
    location    "79";
    object      p;
}
// * * * * * * * * * * * * * * * * * * * * * * * * * * * * * * * * * * * * * //

dimensions      [0 2 -2 0 0 0 0];

internalField   nonuniform List<scalar> 
12842
(
-0.0781419
-0.0874708
-0.110721
-0.152561
-0.210844
-0.284375
-0.371987
-0.469889
-0.56944
-0.655491
-0.706067
-0.693604
-0.587722
-0.359444
0.0141092
0.543451
1.2223
2.02588
2.91304
3.83302
4.73584
5.57732
6.33146
-0.146149
-0.166535
-0.207237
-0.277531
-0.377924
-0.510626
-0.679027
-0.884722
-1.12373
-1.38415
-1.64539
-1.87859
-2.04827
-2.11541
-2.04257
-1.80167
-1.38093
-0.7898
-0.0593954
0.761886
1.62003
2.45792
3.24131
-0.196343
-0.229961
-0.286607
-0.382759
-0.521127
-0.70733
-0.949574
-1.25464
-1.62249
-2.04416
-2.5006
-2.96257
-3.39093
-3.73873
-3.95654
-4.0014
-3.84592
-3.48585
-2.9426
-2.26123
-1.49633
-0.715363
0.0454733
-0.233515
-0.278929
-0.34979
-0.469858
-0.64253
-0.87736
-1.18766
-1.58508
-2.0727
-2.64446
-3.28336
-3.96094
-4.63584
-5.25507
-5.75919
-6.09225
-6.21274
-6.1035
-5.77584
-5.27012
-4.63903
-3.95747
-3.25984
-0.26133
-0.315015
-0.398562
-0.540456
-0.743051
-1.02134
-1.39359
-1.87579
-2.47345
-3.18394
-3.99317
-4.8751
-5.78781
-6.67409
-7.46597
-8.09559
-8.50776
-8.67223
-8.58905
-8.29227
-7.82982
-7.28307
-6.6805
-0.282185
-0.340186
-0.435161
-0.596088
-0.823119
-1.13894
-1.56556
-2.12287
-2.81829
-3.65369
-4.6188
-5.6922
-6.83309
-7.98203
-9.06379
-9.9994
-10.7201
-11.1818
-11.3719
-11.3163
-11.0559
-10.6771
-10.2001
-0.297678
-0.356657
-0.461784
-0.638158
-0.88335
-1.23031
-1.70224
-2.32293
-3.10143
-4.04536
-5.14929
-6.39886
-7.75613
-9.16155
-10.5339
-11.7838
-12.8289
-13.6113
-14.1037
-14.3228
-14.2994
-14.1246
-13.8051
-0.309003
-0.366476
-0.480275
-0.66798
-0.924939
-1.29643
-1.80334
-2.47436
-3.32001
-4.35495
-5.57945
-6.98851
-8.54835
-10.2014
-11.8614
-13.4298
-14.8109
-15.9329
-16.7532
-17.2787
-17.5267
-17.5931
-17.4635
-0.317529
-0.371218
-0.491457
-0.685405
-0.947502
-1.33565
-1.8645
-2.56854
-3.45907
-4.5573
-5.86939
-7.40034
-9.12102
-10.9774
-12.8791
-14.7209
-16.3958
-17.8214
-18.9407
-19.754
-20.2609
-20.5703
-20.6253
-0.326789
-0.373896
-0.500772
-0.698451
-0.964086
-1.36597
-1.91119
-2.64015
-3.56488
-4.7112
-6.09118
-7.71802
-9.56674
-11.5866
-13.6842
-15.7497
-17.6684
-19.3506
-20.7286
-21.7972
-22.5419
-23.0742
-23.3208
-0.334237
-0.37407
-0.508054
-0.707997
-0.977776
-1.39249
-1.95244
-2.70425
-3.66108
-4.85226
-6.29664
-8.0147
-9.98572
-12.1624
-14.449
-16.7331
-18.8943
-20.8379
-22.4872
-23.8318
-24.843
-25.6315
-26.1089
-0.339843
-0.372046
-0.512945
-0.713631
-0.988194
-1.41374
-1.98651
-2.75864
-3.74502
-4.97738
-6.48233
-8.2866
-10.3741
-12.7012
-15.1708
-17.67
-20.0745
-22.2868
-24.2223
-25.8654
-27.1724
-28.2486
-28.989
-0.344177
-0.368423
-0.515569
-0.715952
-0.99568
-1.42943
-2.01335
-2.80326
-3.8166
-5.08648
-6.6483
-8.53407
-10.733
-13.2053
-15.8542
-18.5679
-21.2201
-23.7118
-25.9505
-27.9152
-29.5451
-30.9369
-31.9687
-0.347551
-0.363649
-0.516285
-0.716117
-1.00106
-1.4405
-2.03458
-2.84018
-3.87841
-5.18279
-6.79842
-8.7616
-11.0676
-13.6812
-16.5069
-19.4358
-22.3409
-25.1227
-27.6805
-29.9866
-31.9618
-33.6911
-35.0385
-0.350128
-0.358013
-0.51558
-0.715322
-1.00503
-1.44815
-2.052
-2.87168
-3.93319
-5.26955
-6.93629
-8.97302
-11.3821
-14.133
-17.1334
-20.2786
-23.4414
-26.5222
-29.4117
-32.074
-34.4108
-36.4929
-38.1733
-0.351951
-0.351816
-0.514141
-0.714469
-1.00796
-1.45339
-2.06685
-2.89916
-3.98242
-5.34841
-7.06338
-9.16955
-11.6773
-14.5615
-17.734
-21.0957
-24.5194
-27.9053
-31.1341
-34.1606
-36.867
-39.3083
-41.3292
-0.353075
-0.345343
-0.512694
-0.714062
-1.00995
-1.4569
-2.07967
-2.92315
-4.02645
-5.41951
-7.17934
-9.35025
-11.9516
-14.9643
-18.3058
-21.8831
-25.5688
-29.2617
-32.8314
-36.2217
-39.2955
-42.0904
-44.4471
-0.353478
-0.33889
-0.511869
-0.714142
-1.01096
-1.45907
-2.09049
-2.94362
-4.06492
-5.48217
-7.28284
-9.51311
-12.2024
-15.3379
-18.8442
-22.6341
-26.5795
-30.5761
-34.4801
-38.2232
-41.6489
-44.7772
-47.4491
-0.353145
-0.332745
-0.512015
-0.714454
-1.01094
-1.46011
-2.09917
-2.96036
-4.09731
-5.5356
-7.37255
-9.65627
-12.4271
-15.679
-19.344
-23.341
-27.5389
-31.8284
-36.0501
-40.1216
-43.8681
-47.2923
-50.2408
-0.35205
-0.32722
-0.513221
-0.714574
-1.00989
-1.46009
-2.10551
-2.9732
-4.12331
-5.57937
-7.44769
-9.77867
-12.6241
-15.9848
-19.8009
-23.9955
-28.4328
-32.9955
-37.5062
-41.8667
-45.8857
-49.5501
-52.7178
-0.35022
-0.322609
-0.515238
-0.714137
-1.0079
-1.45896
-2.10925
-2.98192
-4.14258
-5.61306
-7.50762
-9.87937
-12.7919
-16.2524
-20.2089
-24.5869
-29.2432
-34.0489
-38.8068
-43.4022
-47.6309
-51.4659
-54.7835
-0.347636
-0.319149
-0.517794
-0.712772
-1.00497
-1.45666
-2.11037
-2.98668
-4.15526
-5.63675
-7.5521
-9.9577
-12.9286
-16.4782
-20.561
-25.1023
-29.9489
-34.9573
-39.91
-44.6741
-49.0386
-52.9618
-56.3434
-0.344387
-0.316904
-0.520157
-0.710465
-1.00121
-1.45286
-2.10839
-2.98696
-4.16088
-5.65013
-7.58083
-10.0131
-13.0326
-16.6577
-20.8482
-25.5268
-30.5272
-35.6885
-40.7724
-45.6276
-50.0421
-53.9646
-57.3192
-0.339973
-0.316214
-0.522122
-0.707291
-0.997781
-1.44996
-2.10716
-2.9879
-4.16455
-5.65795
-7.59668
-10.0458
-13.1001
-16.7819
-21.0556
-25.8388
-30.9502
-36.2087
-41.3561
-46.223
-50.6022
-54.4382
-57.679
-0.338403
-0.31794
-0.525142
-0.706305
-0.997796
-1.4515
-2.11086
-2.99415
-4.17184
-5.66717
-7.60852
-10.0673
-13.1448
-16.8663
-21.1979
-26.048
-31.2174
-36.502
-41.6276
-46.4114
-50.6599
-54.3252
-57.3861
-0.336195
-0.320293
-0.527862
-0.706454
-1.0005
-1.4574
-2.12068
-3.009
-4.18924
-5.68856
-7.63245
-10.0992
-13.1927
-16.9386
-21.301
-26.1751
-31.3428
-36.5782
-41.5987
-46.2182
-50.2653
-53.707
-56.5513
-0.333388
-0.322817
-0.529615
-0.707183
-1.00463
-1.46545
-2.13305
-3.02695
-4.20926
-5.71226
-7.65635
-10.127
-13.2267
-16.98
-21.3447
-26.2012
-31.3132
-36.437
-41.2896
-45.6908
-49.4961
-52.688
-55.2982
-0.330782
-0.325402
-0.530506
-0.708238
-1.00922
-1.47379
-2.14495
-3.0433
-4.22553
-5.72963
-7.66972
-10.138
-13.2329
-16.9755
-21.3144
-26.1144
-31.1232
-36.0848
-40.723
-44.8706
-48.4115
-51.3439
-53.717
-0.328666
-0.327784
-0.530748
-0.709686
-1.01398
-1.48181
-2.15554
-3.0567
-4.23672
-5.73904
-7.67104
-10.1306
-13.2095
-16.9233
-21.2093
-25.9163
-30.7797
-35.5366
-39.9247
-43.7946
-47.0591
-49.7318
-51.8736
-0.327061
-0.329757
-0.530679
-0.711667
-1.01897
-1.48955
-2.16501
-3.06758
-4.24393
-5.74218
-7.66281
-10.1077
-13.1598
-16.8271
-21.034
-25.614
-30.2944
-34.8118
-38.9233
-42.501
-45.4852
-47.9046
-49.827
-0.326119
-0.331305
-0.530685
-0.714283
-1.02418
-1.497
-2.1735
-3.07633
-4.2481
-5.74045
-7.64689
-10.0713
-13.086
-16.6896
-20.7924
-25.2146
-29.6799
-33.9307
-37.7478
-41.0284
-43.7363
-45.913
-47.6311
-0.326051
-0.332563
-0.531095
-0.717429
-1.02939
-1.50388
-2.18079
-3.0829
-4.24941
-5.73421
-7.62365
-10.0218
-12.9883
-16.5113
-20.4867
-24.7238
-28.9478
-32.9127
-36.4258
-39.4112
-41.8531
-43.7992
-45.3276
-0.326835
-0.333599
-0.531979
-0.720827
-1.03424
-1.50979
-2.18656
-3.08712
-4.24782
-5.7235
-7.59298
-9.95892
-12.8666
-16.2929
-20.1196
-24.1476
-28.1095
-31.7758
-34.9816
-37.6773
-39.8655
-41.5948
-42.9455
-0.328179
-0.334405
-0.533216
-0.72407
-1.03834
-1.5144
-2.1906
-3.08906
-4.2435
-5.7086
-7.55506
-9.8828
-12.7212
-16.0355
-19.694
-23.4926
-27.1762
-30.5359
-33.4359
-35.8477
-37.7926
-39.3186
-40.5002
-0.329634
-0.334907
-0.534565
-0.726838
-1.04146
-1.51767
-2.19307
-3.08911
-4.23698
-5.69017
-7.51052
-9.79423
-12.5533
-15.7414
-19.2145
-22.7664
-26.1596
-29.2076
-31.8053
-33.9403
-35.6497
-36.9833
-38.0042
-0.330813
-0.335092
-0.535854
-0.728957
-1.04362
-1.51979
-2.19439
-3.08798
-4.22904
-5.66907
-7.4602
-9.69418
-12.3643
-15.4133
-18.686
-21.9766
-25.0708
-27.8045
-30.1039
-31.9727
-33.456
-34.6048
-35.4757
-0.331472
-0.334998
-0.536986
-0.730479
-1.04506
-1.52122
-2.19521
-3.08647
-4.22049
-5.64613
-7.40491
-9.58367
-12.1558
-15.0539
-18.1136
-21.1316
-23.9213
-26.3405
-28.3463
-29.9614
-31.2291
-32.2003
-32.9317
-0.331554
-0.33475
-0.537997
-0.731573
-1.04615
-1.52249
-2.19616
-3.08526
-4.21192
-5.62187
-7.34512
-9.46336
-11.9291
-14.666
-17.5025
-20.239
-22.7212
-24.829
-26.5475
-27.9176
-28.9785
-29.7835
-30.3886
-0.331116
-0.334474
-0.538951
-0.732492
-1.04726
-1.52406
-2.1977
-3.08476
-4.20361
-5.59645
-7.28097
-9.33368
-11.6855
-14.2524
-16.8577
-19.307
-21.4806
-23.2827
-24.7209
-25.8511
-26.7153
-27.3688
-27.857
-0.330306
-0.334306
-0.539951
-0.733444
-1.04869
-1.52621
-2.20005
-3.08505
-4.19542
-5.56959
-7.21225
-9.19473
-11.4259
-13.8156
-16.184
-18.3433
-20.2089
-21.7121
-22.8774
-23.7749
-24.4562
-24.9674
-25.3396
-0.329269
-0.334323
-0.54105
-0.734597
-1.05058
-1.52907
-2.20319
-3.08593
-4.18698
-5.54084
-7.13864
-9.04668
-11.1516
-13.3586
-15.4866
-17.356
-18.916
-20.1273
-21.028
-21.7033
-22.2105
-22.5799
-22.8379
-0.328157
-0.33458
-0.542291
-0.736011
-1.05297
-1.53255
-2.20688
-3.08698
-4.17775
-5.50962
-7.05978
-8.88966
-10.8636
-12.8841
-14.7701
-16.3527
-17.6114
-18.538
-19.1839
-19.6449
-19.9784
-20.2045
-20.3525
-0.327068
-0.335066
-0.543651
-0.7377
-1.05579
-1.53649
-2.21083
-3.08779
-4.16726
-5.47551
-6.97558
-8.72415
-10.5638
-12.3955
-14.0396
-15.3412
-16.3051
-16.9546
-17.3541
-17.6053
-17.7637
-17.8499
-17.8932
-0.32608
-0.335761
-0.545112
-0.739606
-1.0589
-1.54065
-2.21472
-3.08795
-4.15513
-5.43824
-6.88609
-8.55075
-10.2536
-11.8959
-13.2999
-14.3284
-15.006
-15.3869
-15.5487
-15.595
-15.5818
-15.5296
-15.468
-0.32522
-0.336601
-0.546613
-0.741671
-1.06219
-1.54485
-2.2183
-3.08722
-4.1412
-5.39783
-6.79175
-8.37041
-9.93495
-11.3888
-12.5558
-13.3211
-13.7232
-13.8455
-13.7788
-13.6266
-13.446
-13.2563
-13.0878
-0.324506
-0.337541
-0.548123
-0.743806
-1.0655
-1.54891
-2.22138
-3.08546
-4.12548
-5.35445
-6.69307
-8.18408
-9.60975
-10.8772
-11.8118
-12.3252
-12.4648
-12.3409
-12.0549
-11.7079
-11.3626
-11.0406
-10.7689
-0.323917
-0.338514
-0.549593
-0.745965
-1.06875
-1.55274
-2.22394
-3.08272
-4.10818
-5.30853
-6.59081
-7.9929
-9.27994
-10.364
-11.0726
-11.3462
-11.2382
-10.8803
-10.3795
-9.85065
-9.35868
-8.90607
-8.5229
-0.323425
-0.339476
-0.551009
-0.748088
-1.0719
-1.55631
-2.22601
-3.07915
-4.08961
-5.26054
-6.48577
-7.79795
-8.94742
-9.85188
-10.3424
-10.389
-10.0498
-9.4727
-8.78136
-8.098
-7.44745
-6.84693
-6.34365
-0.322842
-0.340361
-0.552299
-0.750128
-1.07491
-1.55975
-2.22803
-3.07573
-4.07167
-5.21376
-6.38377
-7.60861
-8.62751
-9.36264
-9.65279
-9.4911
-8.94512
-8.18212
-7.33199
-6.46479
-5.64837
-4.94248
-4.34002
-0.322873
-0.34145
-0.553806
-0.752333
-1.07816
-1.56373
-2.23129
-3.07476
-4.05842
-5.17514
-6.29691
-7.44431
-8.35133
-8.93966
-9.06399
-8.72302
-8.01254
-7.11569
-6.10023
-5.06745
-4.14884
-3.38455
-2.72498
-0.322824
-0.34236
-0.555253
-0.754596
-1.08179
-1.56883
-2.23704
-3.07841
-4.05333
-5.14996
-6.23339
-7.31693
-8.13665
-8.60529
-8.60567
-8.11862
-7.29367
-6.28183
-5.09506
-4.03214
-3.06473
-2.23476
-1.52583
-0.322727
-0.343143
-0.556707
-0.756987
-1.08601
-1.57538
-2.24579
-3.08729
-4.05692
-5.1383
-6.19263
-7.22423
-7.97928
-8.35098
-8.26532
-7.66335
-6.76228
-5.64582
-4.35554
-3.33093
-2.33846
-1.41555
-0.64212
-0.322664
-0.343882
-0.558227
-0.759601
-1.09092
-1.5835
-2.25754
-3.10103
-4.06816
-5.13805
-6.1709
-7.16
-7.86951
-8.16232
-8.02139
-7.3336
-6.36988
-5.19554
-3.91572
-2.86459
-1.84374
-0.822706
0.0369834
-0.322603
-0.344615
-0.559836
-0.76247
-1.09658
-1.59316
-2.27208
-3.11893
-4.08549
-5.14625
-6.16304
-7.11612
-7.79434
-8.02133
-7.84538
-7.09877
-6.06906
-4.90957
-3.68706
-2.51114
-1.45113
-0.395563
0.546048
-0.322477
-0.345318
-0.561506
-0.765611
-1.10294
-1.60417
-2.28878
-3.13975
-4.10669
-5.15957
-6.1637
-7.08526
-7.74143
-7.91284
-7.71126
-6.92976
-5.8292
-4.736
-3.51999
-2.19924
-1.09359
-0.0873371
0.887376
-0.322271
-0.346019
-0.563266
-0.769049
-1.11001
-1.61643
-2.30736
-3.16285
-4.13053
-5.17597
-6.16938
-7.06275
-7.70249
-7.82745
-7.60232
-6.80652
-5.64017
-4.60438
-3.31979
-1.93543
-0.811377
0.109419
1.04374
-0.32214
-0.346785
-0.565253
-0.772945
-1.11793
-1.62998
-2.3276
-3.18765
-4.15582
-5.19353
-6.17631
-7.0429
-7.66709
-7.75153
-7.49952
-6.69889
-5.47286
-4.44209
-3.04864
-1.666
-0.549865
0.288559
1.15028
-0.321843
-0.347447
-0.567152
-0.77685
-1.12596
-1.64355
-2.34741
-3.21095
-4.17795
-5.20621
-6.17637
-7.0164
-7.62364
-7.67444
-7.39465
-6.60242
-5.33733
-4.27301
-2.85131
-1.55234
-0.489442
0.270514
1.04787
-0.321659
-0.34824
-0.5693
-0.781149
-1.13445
-1.65738
-2.36683
-3.23266
-4.19678
-5.21414
-6.16982
-6.9842
-7.57225
-7.59577
-7.28589
-6.5034
-5.2134
-4.07718
-2.72355
-1.52549
-0.516749
0.197888
0.888946
-0.321601
-0.349169
-0.571688
-0.785764
-1.14321
-1.6712
-2.38551
-3.25256
-4.21238
-5.21795
-6.15766
-6.94743
-7.51334
-7.51338
-7.17113
-6.38896
-5.08669
-3.85129
-2.62838
-1.5199
-0.549491
0.166277
0.775632
-0.321587
-0.350114
-0.574154
-0.790466
-1.1519
-1.68452
-2.40287
-3.27016
-4.22457
-5.21793
-6.14068
-6.90709
-7.44831
-7.42698
-7.05348
-6.26198
-4.97135
-3.6469
-2.57127
-1.53115
-0.589282
0.137067
0.682566
-0.321621
-0.351047
-0.576641
-0.795092
-1.16026
-1.69703
-2.41867
-3.28545
-4.23378
-5.21506
-6.12064
-6.8654
-7.38102
-7.33994
-6.9394
-6.133
-4.88331
-3.51399
-2.55218
-1.54638
-0.624588
0.10786
0.611311
-0.321715
-0.351962
-0.579127
-0.799605
-1.16825
-1.70875
-2.43309
-3.29898
-4.24114
-5.21112
-6.10027
-6.82573
-7.31701
-7.25826
-6.83572
-6.01239
-4.8237
-3.45725
-2.53958
-1.53026
-0.609135
0.145054
0.629868
-0.321879
-0.352872
-0.58159
-0.803929
-1.17582
-1.71969
-2.44637
-3.31132
-4.24769
-5.20753
-6.08161
-6.79021
-7.25977
-7.18583
-6.74521
-5.90582
-4.78076
-3.4443
-2.49353
-1.45449
-0.51032
0.285036
0.773502
-0.32206
-0.353737
-0.583949
-0.808006
-1.18292
-1.72992
-2.45876
-3.32298
-4.2542
-5.20515
-6.06563
-6.75927
-7.20983
-7.12296
-6.66668
-5.81477
-4.74009
-3.43883
-2.39875
-1.32182
-0.343008
0.503625
1.03317
-0.322224
-0.354555
-0.586164
-0.811783
-1.18956
-1.73952
-2.47052
-3.33432
-4.26113
-5.20416
-6.05214
-6.73162
-7.16495
-7.06659
-6.59579
-5.73713
-4.68783
-3.41535
-2.26822
-1.15851
-0.156647
0.75169
1.3536
-0.322331
-0.355315
-0.588214
-0.815308
-1.19583
-1.7487
-2.48198
-3.34574
-4.26877
-5.20448
-6.0405
-6.70542
-7.12192
-7.01252
-6.52746
-5.66903
-4.61762
-3.3636
-2.12104
-0.982982
0.0212926
0.955695
1.63087
-0.322393
-0.356056
-0.590153
-0.818655
-1.20188
-1.75769
-2.49341
-3.35749
-4.27718
-5.20568
-6.02956
-6.67837
-7.07693
-6.95579
-6.4557
-5.60419
-4.53175
-3.28915
-1.97195
-0.811482
0.186674
1.10738
1.84135
-0.322404
-0.356792
-0.592022
-0.821944
-1.20788
-1.7667
-2.50506
-3.3697
-4.28622
-5.20709
-6.01798
-6.64816
-7.02633
-6.8915
-6.37405
-5.5342
-4.43221
-3.19864
-1.83925
-0.674518
0.319661
1.22268
2.02126
-0.322392
-0.357558
-0.593887
-0.825245
-1.21392
-1.77585
-2.51697
-3.38221
-4.29538
-5.20771
-6.00404
-6.6123
-6.96638
-6.81443
-6.27519
-5.44826
-4.31311
-3.08808
-1.73294
-0.589437
0.401811
1.28751
2.13341
-0.322354
-0.358348
-0.595769
-0.828623
-1.22008
-1.78517
-2.52906
-3.39474
-4.30406
-5.2065
-5.98621
-6.56875
-6.89408
-6.72022
-6.15246
-5.33572
-4.16566
-2.94863
-1.64182
-0.536397
0.447169
1.29539
2.12819
-0.322315
-0.359175
-0.597698
-0.832078
-1.22633
-1.79456
-2.54111
-3.40686
-4.31152
-5.20243
-5.96309
-6.51594
-6.80735
-6.6057
-6.00081
-5.1883
-3.98599
-2.77506
-1.53938
-0.476959
0.486755
1.29082
2.04778
-0.322263
-0.360017
-0.599657
-0.83561
-1.23265
-1.80394
-2.55291
-3.41818
-4.31718
-5.1948
-5.93394
-6.45339
-6.70581
-6.47021
-5.81883
-5.00247
-3.7765
-2.56846
-1.40134
-0.374748
0.528437
1.29638
1.92766
-0.32222
-0.360877
-0.60165
-0.839174
-1.23895
-1.81316
-2.56419
-3.42831
-4.32057
-5.18318
-5.89854
-6.38147
-6.59053
-6.31548
-5.60895
-4.78085
-3.54536
-2.33556
-1.22053
-0.212057
0.621687
1.31452
1.85699
-0.322167
-0.361727
-0.603646
-0.842748
-1.24518
-1.82209
-2.57478
-3.43704
-4.3215
-5.16761
-5.85735
-6.30158
-6.46416
-6.14583
-5.37784
-4.52758
-3.30282
-2.08846
-1.00986
-0.0165746
0.789256
1.39524
1.90258
-0.322122
-0.362575
-0.605643
-0.846283
-1.25125
-1.83064
-2.58452
-3.44422
-4.31991
-5.14832
-5.81115
-6.21552
-6.33012
-5.96708
-5.13555
-4.25114
-3.0545
-1.84269
-0.787145
0.171843
0.977829
1.52022
1.97061
-0.322064
-0.363398
-0.607612
-0.849766
-1.25715
-1.83874
-2.59337
-3.44984
-4.31597
-5.1258
-5.76102
-6.12546
-6.19229
-5.78583
-4.89358
-3.97143
-2.80248
-1.61166
-0.576019
0.330972
1.11291
1.63114
2.00806
-0.322011
-0.364208
-0.609558
-0.853161
-1.26281
-1.84634
-2.60126
-3.45392
-4.30984
-5.10052
-5.70792
-6.03322
-6.05408
-5.60818
-4.66169
-3.70837
-2.56406
-1.4043
-0.394648
0.451307
1.16987
1.69713
2.0531
-0.321938
-0.364988
-0.611458
-0.856472
-1.26825
-1.85345
-2.60825
-3.45657
-4.30177
-5.073
-5.65277
-5.9404
-5.91828
-5.43917
-4.44745
-3.46854
-2.36212
-1.22797
-0.250236
0.53143
1.17647
1.70842
2.07724
-0.321865
-0.365754
-0.613324
-0.859678
-1.27344
-1.86005
-2.61433
-3.45786
-4.29193
-5.04353
-5.59607
-5.84783
-5.78646
-5.28189
-4.25684
-3.24814
-2.19898
-1.09031
-0.145547
0.576087
1.15911
1.67224
2.04105
-0.321768
-0.366493
-0.61514
-0.862794
-1.2784
-1.86618
-2.61955
-3.45788
-4.28048
-5.01234
-5.53812
-5.75592
-5.65924
-5.13733
-4.09446
-3.04551
-2.05789
-0.991943
-0.0792443
0.602309
1.12719
1.60628
1.9609
-0.321667
-0.367224
-0.616921
-0.865804
-1.28311
-1.87181
-2.62392
-3.45665
-4.26744
-4.97941
-5.47881
-5.66437
-5.5361
-5.00429
-3.96212
-2.86746
-1.92637
-0.922962
-0.0439516
0.623895
1.09782
1.53896
1.86828
-0.321535
-0.367933
-0.618652
-0.868729
-1.28761
-1.87698
-2.62748
-3.4542
-4.25282
-4.94469
-5.41792
-5.5726
-5.41591
-4.87998
-3.85778
-2.72508
-1.80747
-0.871473
-0.0315025
0.636387
1.08011
1.48067
1.78033
-0.321397
-0.368637
-0.62035
-0.871554
-1.29185
-1.88166
-2.63019
-3.45048
-4.2365
-4.9079
-5.35493
-5.47965
-5.29698
-4.76063
-3.7752
-2.62582
-1.70929
-0.835905
-0.0436582
0.621489
1.05979
1.42381
1.6953
-0.321224
-0.369323
-0.622
-0.874297
-1.29588
-1.88588
-2.63204
-3.44544
-4.21838
-4.86883
-5.28938
-5.3846
-5.17753
-4.64238
-3.70417
-2.57355
-1.6381
-0.819018
-0.0824108
0.567684
1.01073
1.35285
1.60539
-0.321042
-0.370007
-0.623616
-0.876941
-1.29966
-1.88959
-2.63299
-3.43897
-4.19826
-4.82713
-5.22071
-5.28646
-5.05579
-4.52184
-3.63204
-2.55749
-1.59959
-0.820135
-0.140159
0.47836
0.923298
1.25992
1.50618
-0.32082
-0.370672
-0.62518
-0.879499
-1.30321
-1.8928
-2.63299
-3.43101
-4.176
-4.78256
-5.14852
-5.18451
-4.93028
-4.39668
-3.54786
-2.54948
-1.59153
-0.835433
-0.203699
0.372971
0.814657
1.15165
1.39853
-0.320586
-0.371334
-0.626706
-0.881951
-1.30649
-1.89544
-2.63197
-3.4214
-4.15139
-4.73483
-5.07241
-5.07819
-4.79984
-4.26542
-3.44664
-2.52072
-1.59855
-0.858463
-0.260172
0.274298
0.709237
1.04359
1.28869
-0.320308
-0.371974
-0.628173
-0.884306
-1.3095
-1.89751
-2.62987
-3.41006
-4.12431
-4.68378
-4.99223
-4.9673
-4.66385
-4.12726
-3.3299
-2.45784
-1.59833
-0.87729
-0.299254
0.197878
0.620861
0.944558
1.18301
-0.320014
-0.372606
-0.629594
-0.88654
-1.31221
-1.89894
-2.62661
-3.39686
-4.09458
-4.62926
-4.90785
-4.85184
-4.52224
-3.98186
-3.2027
-2.36454
-1.57264
-0.87835
-0.315153
0.148676
0.551774
0.858138
1.08705
-0.319669
-0.373211
-0.630947
-0.88866
-1.31461
-1.89972
-2.62213
-3.38172
-4.06211
-4.57122
-4.81935
-4.73213
-4.37556
-3.8293
-3.06907
-2.25237
-1.51367
-0.853477
-0.307715
0.124895
0.501235
0.787156
1.00493
-0.319305
-0.373802
-0.632241
-0.890638
-1.31667
-1.89978
-2.61635
-3.36451
-4.02681
-4.50963
-4.72685
-4.60864
-4.22484
-3.67037
-2.93063
-2.13136
-1.42627
-0.804726
-0.282317
0.120816
0.468195
0.732529
0.937108
-0.318882
-0.374359
-0.633453
-0.892479
-1.31837
-1.89908
-2.6092
-3.34516
-3.98861
-4.44456
-4.6306
-4.48202
-4.07144
-3.50651
-2.78762
-2.00674
-1.32233
-0.740659
-0.245226
0.130554
0.449322
0.690513
0.879499
-0.318435
-0.374897
-0.634596
-0.894157
-1.31967
-1.89759
-2.60063
-3.32361
-3.94749
-4.37608
-4.53089
-4.35294
-3.91687
-3.33994
-2.64136
-1.88142
-1.2138
-0.672988
-0.206692
0.146279
0.438165
0.655934
0.828377
-0.317927
-0.37539
-0.635642
-0.895669
-1.32056
-1.89522
-2.59049
-3.29967
-3.9033
-4.30422
-4.42801
-4.22216
-3.76273
-3.17299
-2.49353
-1.75853
-1.10667
-0.601039
-0.164028
0.166331
0.431647
0.626763
0.782713
-0.317423
-0.375894
-0.636653
-0.897075
-1.32115
-1.8922
-2.57905
-3.27355
-3.85612
-4.22896
-4.32193
-4.08997
-3.61011
-3.00888
-2.34954
-1.6441
-1.0066
-0.551489
-0.157971
0.170244
0.41521
0.592549
0.735378
-0.317121
-0.376428
-0.637727
-0.898473
-1.32134
-1.88775
-2.56427
-3.24149
-3.80053
-4.14401
-4.20654
-3.95132
-3.45703
-2.84605
-2.19881
-1.53976
-0.909797
-0.425609
-0.0521559
0.235194
0.430318
0.579452
0.704343
-0.315936
-0.37614
-0.637471
-0.89804
-1.31831
-1.8777
-2.54039
-3.19642
-3.72905
-4.04314
-4.07952
-3.80879
-3.31141
-2.70782
-2.08824
-1.49386
-0.92802
-0.484917
-0.138144
0.145222
0.344411
0.492986
0.613957
-0.31494
-0.375926
-0.636942
-0.896793
-1.31286
-1.86244
-2.50732
-3.13787
-3.6409
-3.92519
-3.93878
-3.65854
-3.16288
-2.57034
-1.97629
-1.43765
-0.943278
-0.54629
-0.221736
0.0516262
0.248563
0.396683
0.516136
-0.314135
-0.375914
-0.636361
-0.895029
-1.30547
-1.84263
-2.46583
-3.06653
-3.53614
-3.78874
-3.78058
-3.49534
-3.00549
-2.42271
-1.84192
-1.3322
-0.879923
-0.50739
-0.207481
0.0357166
0.209986
0.344639
0.454772
-0.313061
-0.375765
-0.635332
-0.892288
-1.29553
-1.81743
-2.41488
-2.98111
-3.41295
-3.63098
-3.60071
-3.31467
-2.83995
-2.27754
-1.71336
-1.21868
-0.789089
-0.435835
-0.162351
0.0508295
0.202289
0.32054
0.41947
-0.311642
-0.375343
-0.633645
-0.888114
-1.28232
-1.78581
-2.35318
-2.88022
-3.26995
-3.45048
-3.39737
-3.11379
-2.66497
-2.14028
-1.60986
-1.13695
-0.730257
-0.398656
-0.146122
0.0483179
0.18654
0.294673
0.384927
-0.309896
-0.374634
-0.631224
-0.882326
-1.2655
-1.74728
-2.28031
-2.76387
-3.10795
-3.24903
-3.17277
-2.893
-2.47518
-1.99792
-1.51567
-1.0793
-0.704328
-0.397662
-0.162673
0.0193889
0.15171
0.253946
0.338001
-0.30787
-0.373585
-0.627927
-0.874606
-1.24461
-1.70139
-2.19618
-2.63276
-2.92906
-3.03045
-2.93214
-2.65664
-2.26899
-1.83928
-1.41113
-1.02312
-0.689912
-0.414518
-0.199402
-0.0301658
0.0970756
0.194121
0.274092
-0.305366
-0.371969
-0.623378
-0.864495
-1.21903
-1.64759
-2.10064
-2.48766
-2.73554
-2.79906
-2.68202
-2.4129
-2.05465
-1.67075
-1.29827
-0.964055
-0.678599
-0.440058
-0.249036
-0.0960087
0.0240849
0.11592
0.192397
-0.302316
-0.369598
-0.617218
-0.851431
-1.18809
-1.58529
-1.99365
-2.32955
-2.52993
-2.55945
-2.42956
-2.1723
-1.84664
-1.50915
-1.19141
-0.910013
-0.670796
-0.469805
-0.304674
-0.170283
-0.0604729
0.0254091
0.097937
-0.298611
-0.366301
-0.609125
-0.835011
-1.15133
-1.51435
-1.87583
-2.16035
-2.31578
-2.31698
-2.18194
-1.94417
-1.65615
-1.36568
-1.09851
-0.8643
-0.665329
-0.498227
-0.357695
-0.24204
-0.144687
-0.0654239
0.00220318
-0.294324
-0.36203
-0.598923
-0.814888
-1.10852
-1.43508
-1.74866
-1.98315
-2.09787
-2.07763
-1.94523
-1.73332
-1.48566
-1.24009
-1.01706
-0.822675
-0.656728
-0.517991
-0.399669
-0.301137
-0.217409
-0.14658
-0.0851864
-0.289351
-0.356626
-0.586341
-0.790777
-1.05963
-1.34822
-1.61429
-1.80186
-1.88156
-1.84692
-1.72312
-1.5397
-1.33115
-1.12582
-0.939891
-0.778447
-0.639697
-0.523571
-0.424101
-0.340145
-0.269056
-0.207826
-0.153853
-0.283654
-0.349941
-0.571093
-0.762286
-1.00465
-1.25474
-1.47523
-1.62058
-1.67164
-1.6287
-1.5166
-1.36074
-1.18722
-1.0168
-0.861696
-0.727158
-0.611065
-0.513212
-0.429545
-0.357785
-0.296987
-0.244717
-0.198213
-0.276959
-0.341604
-0.5527
-0.729018
-0.943684
-1.15579
-1.33396
-1.44279
-1.47143
-1.42462
-1.32503
-1.19373
-1.05021
-0.909696
-0.780736
-0.668265
-0.571146
-0.488608
-0.418451
-0.357522
-0.305165
-0.260491
-0.22085
-0.269108
-0.331319
-0.530717
-0.690561
-0.876949
-1.05264
-1.19271
-1.27094
-1.28253
-1.23468
-1.14707
-1.03691
-0.918601
-0.803481
-0.697276
-0.60361
-0.522497
-0.452856
-0.393757
-0.342552
-0.297707
-0.259129
-0.225426
-0.259734
-0.318573
-0.50462
-0.646691
-0.804905
-0.946594
-1.05323
-1.10647
-1.10535
-1.05828
-0.981716
-0.889744
-0.792682
-0.698951
-0.612534
-0.535507
-0.468285
-0.409961
-0.359825
-0.316635
-0.278709
-0.24546
-0.216447
-0.2487
-0.303032
-0.474095
-0.597384
-0.728258
-0.839024
-0.916972
-0.950228
-0.940102
-0.89519
-0.829045
-0.753044
-0.674417
-0.598984
-0.529773
-0.467788
-0.4132
-0.365517
-0.323836
-0.287603
-0.255848
-0.227696
-0.202837
-0.235642
-0.284225
-0.438915
-0.542964
-0.647995
-0.73137
-0.785262
-0.803125
-0.78736
-0.746062
-0.690064
-0.628392
-0.566081
-0.506652
-0.452268
-0.403514
-0.360156
-0.321963
-0.288203
-0.258307
-0.231873
-0.208287
-0.187173
-0.220495
-0.261974
-0.399214
-0.484095
-0.565392
-0.62526
-0.659659
-0.666355
-0.648085
-0.611796
-0.565785
-0.516965
-0.468957
-0.423606
-0.382098
-0.344849
-0.311482
-0.281713
-0.255188
-0.231391
-0.210038
-0.190855
-0.173531
-0.203022
-0.236117
-0.355385
-0.421866
-0.482085
-0.522599
-0.541999
-0.541243
-0.523023
-0.492642
-0.456138
-0.418525
-0.382522
-0.349064
-0.318506
-0.290992
-0.266226
-0.243811
-0.223549
-0.205175
-0.188456
-0.173257
-0.159424
-0.183315
-0.206919
-0.308288
-0.35781
-0.40007
-0.425548
-0.434162
-0.428925
-0.412298
-0.387907
-0.359821
-0.331481
-0.304894
-0.280672
-0.258737
-0.238937
-0.22103
-0.204662
-0.189603
-0.175744
-0.162982
-0.151257
-0.140504
-0.16149
-0.174869
-0.259193
-0.293899
-0.321665
-0.336285
-0.337873
-0.330295
-0.315892
-0.296913
-0.275893
-0.255015
-0.235683
-0.218369
-0.202937
-0.189072
-0.176507
-0.164972
-0.154241
-0.144205
-0.13484
-0.126147
-0.118144
-0.137978
-0.140991
-0.20981
-0.232489
-0.249271
-0.2568
-0.254527
-0.246187
-0.234106
-0.219689
-0.204362
-0.18938
-0.175616
-0.163403
-0.152663
-0.1431
-0.13444
-0.126464
-0.11901
-0.111971
-0.105327
-0.0990939
-0.093343
-0.11349
-0.106611
-0.162247
-0.175953
-0.185131
-0.188601
-0.184991
-0.177119
-0.167282
-0.156491
-0.145523
-0.134996
-0.125389
-0.116868
-0.109402
-0.102773
-0.0967719
-0.09121
-0.0859899
-0.081036
-0.0763432
-0.0719111
-0.0678165
-0.0888839
-0.0735163
-0.118572
-0.126454
-0.13082
-0.132486
-0.12927
-0.122898
-0.115303
-0.107494
-0.0998856
-0.0928077
-0.0864203
-0.0808116
-0.0758932
-0.0715474
-0.0675925
-0.0639169
-0.0604278
-0.0571083
-0.0539488
-0.0509715
-0.0482144
-0.0654378
-0.0434154
-0.0805648
-0.085301
-0.0869958
-0.0881433
-0.0862349
-0.081869
-0.0764682
-0.0710067
-0.0658287
-0.0611291
-0.0569375
-0.0532769
-0.0500497
-0.0471739
-0.0445183
-0.0420158
-0.0396023
-0.037282
-0.0350596
-0.0329684
-0.0310355
-0.0442571
-0.0178974
-0.0493232
-0.0528678
-0.0532599
-0.0544357
-0.0540104
-0.0517483
-0.0484708
-0.0450326
-0.0417782
-0.038879
-0.0363177
-0.0340971
-0.0321264
-0.0303499
-0.0286704
-0.0270519
-0.0254523
-0.0238879
-0.0223685
-0.0209326
-0.0196013
-0.026356
0.00218162
-0.0250861
-0.0286539
-0.0285212
-0.0298169
-0.0305902
-0.0301111
-0.0286384
-0.0268275
-0.0249979
-0.0233527
-0.0218615
-0.0205437
-0.0193201
-0.0181787
-0.0170464
-0.0159235
-0.0147787
-0.0136454
-0.0125294
-0.0114767
-0.0104973
-0.0128372
0.0154702
-0.00836518
-0.0121827
-0.0118212
-0.0133532
-0.0153979
-0.0170434
-0.0181019
-0.018957
-0.0198056
-0.0208255
-0.0219229
-0.0230748
-0.0241561
-0.025152
-0.0259808
-0.0266528
-0.0271324
-0.0274592
-0.027633
-0.0277075
-0.0276835
-0.00451822
0.0210652
0.00301387
-0.000193035
0.00183891
0.00257516
0.0026229
0.00277716
0.00350356
0.00457444
0.00588838
0.007156
0.00841786
0.00960173
0.0108169
0.012008
0.0132349
0.0144321
0.01563
0.0167628
0.0178385
0.0187989
0.0196503
0.364955
0.362906
0.435635
0.556195
0.724238
0.956215
1.27407
1.71248
2.29904
3.06791
4.04292
5.25271
6.71272
8.43235
10.3979
12.5691
14.8746
17.2195
19.4993
21.6158
23.5002
25.1041
26.4485
0.339973
0.343812
0.40514
0.515432
0.669724
0.885022
1.18265
1.59307
2.14477
2.87014
3.79491
4.94514
6.33586
7.97228
9.83786
11.8892
14.0546
16.2409
18.3478
20.2845
21.9884
23.4225
24.6074
0.308405
0.316413
0.366078
0.463341
0.600366
0.792812
1.06158
1.4335
1.9365
2.6015
3.45545
4.52304
5.81916
7.3465
9.08682
10.9955
13.0016
15.0154
16.9417
18.6972
20.2255
21.4992
22.5378
0.269168
0.278759
0.317173
0.398263
0.51461
0.678635
0.910175
1.23306
1.67361
2.26107
3.02285
3.98321
5.15749
6.54787
8.13637
9.87948
11.7092
13.5403
15.2838
16.863
18.2268
19.3555
20.2662
0.22105
0.229151
0.257133
0.318837
0.410336
0.540436
0.726467
0.989506
1.35351
1.84567
2.49312
3.32021
4.34351
5.5669
6.9752
8.52902
10.1659
11.8072
13.3705
14.785
16.003
17.0086
17.8153
0.162453
0.166631
0.184686
0.224438
0.286335
0.376695
0.509144
0.70148
0.974815
1.35376
1.86444
2.53142
3.37318
4.39724
5.59415
6.932
8.35718
9.80034
11.1873
12.4529
13.5511
14.4652
15.2021
0.0915021
0.0917474
0.0992779
0.11514
0.142643
0.186942
0.257574
0.368334
0.536829
0.78467
1.13636
1.61659
2.24628
3.03779
3.98957
5.08051
6.26971
7.50071
8.7101
9.83885
10.8424
11.6994
12.4093
0.00710464
0.00442028
-0.00102501
-0.0118558
-0.0241457
-0.0339318
-0.0356311
-0.0200709
0.0262394
0.12176
0.289515
0.555047
0.942845
1.47164
2.14974
2.96968
3.90623
4.91814
5.95351
6.95872
7.88837
8.71243
9.41952
0.458193
0.415949
0.599407
0.745665
0.953048
1.2516
1.62308
2.17107
2.87165
3.78799
4.90859
6.26686
7.84129
9.63076
11.5864
13.6555
15.7499
17.7739
19.6351
21.2663
22.6302
23.7387
24.5977
0.458688
0.415769
0.597767
0.739927
0.943897
1.24095
1.61181
2.15854
2.85965
3.7795
4.90952
6.28712
7.89418
9.73534
11.7684
13.9469
16.1892
18.3997
20.4826
22.3576
23.9751
25.3283
26.4118
0.459029
0.414597
0.596596
0.735515
0.93529
1.22966
1.59894
2.14232
2.84153
3.76101
4.89605
6.28727
7.92098
9.80604
11.9064
14.18
16.5509
18.9247
21.204
23.2986
25.1491
26.7305
28.0308
0.459261
0.412195
0.59496
0.732554
0.928111
1.21881
1.58589
2.12421
2.81932
3.73462
4.86974
6.26786
7.92063
9.84023
11.996
14.3492
16.8282
19.3397
21.7857
24.0687
26.1226
27.9054
29.4024