/*--------------------------------*- C++ -*----------------------------------*\
  =========                 |
  \\      /  F ield         | OpenFOAM: The Open Source CFD Toolbox
   \\    /   O peration     | Website:  https://openfoam.org
    \\  /    A nd           | Version:  7
     \\/     M anipulation  |
\*---------------------------------------------------------------------------*/
FoamFile
{
    version     2.0;
    format      ascii;
    class       surfaceScalarField;
    location    "79";
    object      phi;
}
// * * * * * * * * * * * * * * * * * * * * * * * * * * * * * * * * * * * * * //

dimensions      [0 3 -1 0 0 0 0];

internalField   nonuniform List<scalar> 
25449
(
69.126
43.3494
-18.6302
51.2488
32.0353
-14.1581
38.1927
23.8135
-10.7575
28.5819
17.7914
-8.18056
21.4623
13.3494
-6.22981
16.1617
10.054
-4.75337
12.1995
7.59795
-3.63584
9.22869
5.7606
-2.78974
6.99561
4.3818
-2.14872
5.31385
3.3442
-1.66245
4.04541
2.5612
-1.29276
3.08763
1.96853
-1.01075
2.36389
1.51833
-0.794585
1.81677
1.17486
-0.627737
1.40315
0.911552
-0.497935
1.09058
0.708601
-0.396029
0.854534
0.551332
-0.315288
0.676451
0.428887
-0.250803
0.542235
0.333224
-0.199008
0.441178
0.258357
-0.1573
0.365144
0.199765
-0.123731
0.307954
0.154016
-0.0968257
0.118324
-0.0753326
0.264963
54.578
62.4136
40.6657
45.9475
30.4302
34.0491
22.8507
25.3709
17.2092
18.9908
12.9934
14.2699
9.83283
10.7585
7.45748
8.13595
5.6687
6.17058
4.31955
4.69335
3.30076
3.58
2.53075
2.73854
1.94846
2.10061
1.50807
1.61525
1.1751
1.24453
0.923522
0.960177
0.733662
0.741192
0.590577
0.571972
0.4829
0.4409
0.401975
0.339283
0.341215
0.260525
0.295611
0.19962
0.152532
0.261402
42.0984
76.6354
31.5834
56.4625
23.7657
41.8668
17.9284
31.2083
13.5552
23.364
10.2705
17.5546
7.79816
13.2308
5.93423
9.99988
4.52711
7.5777
3.46371
5.75675
2.65942
4.3843
2.05074
3.34722
1.58999
2.56136
1.24126
1.96399
0.977469
1.50832
0.778152
1.15949
0.627773
0.891571
0.514515
0.68523
0.429365
0.526051
0.365442
0.403206
0.317506
0.308462
0.28157
0.235556
0.17946
0.254642
32.1112
86.9406
24.3327
64.2409
18.4556
47.7439
14.0123
35.6517
10.6515
26.7248
8.10849
20.0976
6.18354
15.1558
4.72584
11.4576
3.62158
8.68196
2.78476
6.59357
2.15044
5.01862
1.66952
3.82814
1.30493
2.92595
1.02865
2.24026
0.819482
1.71749
0.661337
1.31764
0.541985
1.01092
0.452089
0.775126
0.384509
0.59363
0.333786
0.453929
0.295754
0.346493
0.267247
0.264064
0.200824
0.245883
24.4185
94.1721
18.7722
69.8871
14.3974
52.1187
11.0274
39.0218
8.44259
29.3095
6.46611
22.0741
4.95798
16.6639
3.80892
12.6066
2.93433
9.55656
2.26909
7.25881
1.76331
5.5244
1.3789
4.21255
1.08686
3.21799
0.865161
2.46197
0.697047
1.8856
0.569773
1.44491
0.473609
1.10709
0.401102
0.847633
0.346539
0.648193
0.305544
0.494924
0.274773
0.377264
0.251683
0.287154
0.218152
0.234356
18.6278
99.0301
14.6119
73.9031
11.3758
55.3548
8.81325
41.5843
6.80866
31.3141
5.2535
23.6292
4.05408
17.8633
3.13284
13.5279
2.42732
10.2621
1.88813
7.798
1.47661
5.93592
1.16285
4.52631
0.923821
3.45701
0.741905
2.64388
0.603637
2.02387
0.498722
1.54983
0.419273
1.18654
0.359231
0.907675
0.31394
0.693484
0.279826
0.529038
0.254153
0.402937
0.234842
0.306465
0.23268
0.220314
14.3364
102.071
11.5531
76.6864
9.16828
57.7396
7.20364
43.5489
5.62505
32.8927
4.3771
24.8772
3.40152
18.8389
2.64473
14.2847
2.06082
10.846
1.61201
8.24681
1.26793
6.28
1.00458
4.78966
0.803285
3.65831
0.6496
2.79757
0.532424
2.14105
0.443227
1.63902
0.375452
1.25431
0.324047
0.959081
0.285121
0.73241
0.255683
0.558476
0.233439
0.425181
0.216642
0.323262
0.245364
0.203959
11.1879
103.727
9.33121
78.5431
7.57776
59.4931
6.05113
45.0756
4.78127
34.1626
3.75395
25.9045
2.9379
19.6549
2.2976
14.925
1.79942
11.3441
1.4141
8.63213
1.11724
6.57687
0.889092
5.0178
0.714056
3.83334
0.579933
2.93169
0.477285
2.24369
0.398829
1.71748
0.33895
1.31419
0.293313
1.00472
0.258576
0.767147
0.232163
0.584889
0.212101
0.445243
0.196869
0.338493
0.256917
0.185316
8.594
106.752
6.40557
80.7315
4.80453
61.0941
3.6249
46.2552
2.7504
35.0371
2.09857
26.5563
1.6106
20.1429
1.24396
15.2916
0.967636
11.6205
0.75886
8.84091
0.600749
6.73498
0.480743
5.13781
0.389489
3.9246
0.319993
3.00119
0.267022
2.29666
0.226634
1.75787
0.195842
1.34498
0.17237
1.02819
0.154482
0.785036
0.140851
0.598521
0.130463
0.455631
0.122555
0.3464
0.262948
0.116525
6.38549
109.007
4.76029
82.3567
3.57398
62.2804
2.70186
47.1273
2.0564
35.6825
1.57582
27.0369
1.21629
20.5024
0.946227
15.5617
0.742654
11.824
0.588778
8.99478
0.472144
6.85161
0.383499
5.22645
0.31596
3.99214
0.264386
3.05276
0.224937
2.33611
0.194721
1.78808
0.171552
1.36815
0.153766
1.04598
0.140096
0.798705
0.12958
0.609037
0.121484
0.463728
0.115257
0.352628
0.267744
0.11046
4.70142
110.666
3.50874
83.5494
2.63946
63.1497
2.00153
47.7652
1.52995
36.1541
1.17911
27.3877
0.916701
20.7648
0.719564
15.7588
0.570877
11.9727
0.458393
9.10727
0.373009
6.937
0.307976
5.29148
0.258274
4.04184
0.220158
3.09088
0.190837
2.36543
0.168215
1.81071
0.15071
1.38566
0.137124
1.05956
0.12655
0.80928
0.118304
0.617284
0.111863
0.470169
0.106841
0.357649
0.271662
0.102924
3.42542
111.867
2.56325
84.4115
1.93484
63.7781
1.47401
48.2261
1.13342
36.4947
0.880032
27.6411
0.690409
20.9545
0.547838
15.9014
0.440164
12.0804
0.358578
9.18885
0.296501
6.99908
0.24906
5.33892
0.212627
4.07827
0.184499
3.119
0.16267
2.38726
0.145637
1.82774
0.132274
1.39902
0.121736
1.0701
0.113387
0.817629
0.106754
0.623917
0.101476
0.475447
0.0972906
0.361835
0.274979
0.0939736
2.46522
112.715
1.85416
85.0226
1.40745
64.2248
1.07939
48.5541
0.836517
36.7376
0.655562
27.8221
0.519875
21.0902
0.417648
16.0036
0.340246
12.1578
0.281436
9.24766
0.236516
7.04399
0.20201
5.37343
0.175314
4.10497
0.154497
3.13982
0.138129
2.40363
0.125148
1.84072
0.11477
1.4094
0.106409
1.07846
0.099635
0.824403
0.0941333
0.629419
0.0896625
0.479918
0.0860501
0.365447
0.27789
0.0831393
1.75202
113.296
1.32987
85.4447
1.01857
64.5361
0.788633
48.7841
0.617515
36.9087
0.489469
27.9501
0.39302
21.1866
0.32005
16.0766
0.264547
12.2133
0.222181
9.29003
0.189627
7.07655
0.164423
5.39863
0.144711
4.12468
0.129115
3.15542
0.116624
2.41612
0.106498
1.85085
0.0981991
1.4177
0.091338
1.08532
0.0856352
0.830106
0.080891
0.634163
0.0769521
0.483857
0.0737112
0.368688
0.280543
0.0710589
1.21935
113.671
0.940386
85.7237
0.730546
64.7459
0.573373
48.9413
0.455041
37.0271
0.365661
28.0395
0.29774
21.2545
0.245958
16.1284
0.206265
12.253
0.175742
9.32055
0.152076
7.10021
0.133543
5.41717
0.118821
4.1394
0.106936
3.1673
0.0971816
2.42587
0.089048
1.85898
0.0821834
1.42456
0.076341
1.09117
0.0713538
0.835093
0.067108
0.63841
0.063514
0.487451
0.0605114
0.371691
0.283031
0.0580233
0.833184
113.89
0.660273
85.8966
0.524332
64.8819
0.419371
49.0462
0.338454
37.108
0.276201
28.1017
0.228135
21.3026
0.191003
16.1655
0.162188
12.2818
0.13978
9.34296
0.122182
7.11781
0.108187
5.43116
0.0968437
4.15074
0.0874539
3.17669
0.0795202
2.43381
0.0726968
1.8658
0.0667615
1.4305
0.0615703
1.09636
0.0570361
0.839627
0.0531054
0.642341
0.0497322
0.490825
0.0468864
0.374537
0.285407
0.0445106
0.553833
113.991
0.459812
85.9906
0.377676
64.964
0.30998
49.1139
0.255323
37.1626
0.211838
28.1452
0.177353
21.3371
0.150147
16.1927
0.12865
12.3033
0.11167
9.35994
0.0981126
7.13137
0.0871245
5.44215
0.0780062
4.15986
0.0702455
3.18445
0.0634863
2.44057
0.057495
1.8718
0.0521412
1.43585
0.0473538
1.10115
0.0431031
0.843879
0.0393765
0.646067
0.0361562
0.494045
0.0334302
0.377263
0.287688
0.0311498
0.3555
114.001
0.319723
86.0264
0.276153
65.0076
0.23441
49.1557
0.197582
37.1995
0.166558
28.1763
0.140925
21.3627
0.120089
16.2135
0.103233
12.3202
0.0896627
9.37351
0.0786269
7.14241
0.0695045
5.45127
0.0617565
4.16761
0.0549899
3.19122
0.0489387
2.44662
0.0434438
1.87729
0.0384371
1.44086
0.0338982
1.10568
0.0298357
0.847941
0.0262637
0.64964
0.023179
0.49713
0.020577
0.379865
0.289857
0.0184084
0.218753
113.943
0.22553
86.0196
0.208966
65.0242
0.184618
49.18
0.159253
37.2248
0.135932
28.1996
0.115589
21.3831
0.0984453
16.2307
0.0842172
12.3344
0.0725407
9.38519
0.0628886
7.15206
0.0547804
5.45938
0.0477706
4.17462
0.0415347
3.19746
0.0358589
2.45229
0.0306297
1.88252
0.0258192
1.44567
0.0214404
1.11006
0.0175254
0.851856
0.0141019
0.653063
0.0111702
0.500062
0.00872432
0.382311
0.291874
0.00670732
0.127838
113.831
0.16547
85.982
0.167321
65.0223
0.154022
49.1933
0.135407
37.2434
0.116276
28.2187
0.0985961
21.4007
0.0831728
16.2461
0.0700918
12.3475
0.059197
9.39608
0.0500977
7.16116
0.0423865
5.46709
0.0356627
4.18135
0.0296334
3.20349
0.0241088
2.45782
0.0190001
1.88763
0.014303
1.45036
0.0100503
1.11432
0.00628547
0.855622
0.00304017
0.656309
0.000305354
0.502797
-0.00193496
0.384551
0.293694
-0.00375508
0.070625
113.679
0.130483
85.9221
0.144423
65.0084
0.137515
49.2002
0.1222
37.2588
0.104691
28.2362
0.0877536
21.4177
0.0726099
16.2612
0.0595959
12.3605
0.048674
9.40701
0.0395274
7.17031
0.0317728
5.47485
0.0250198
4.1881
0.0189804
3.20953
0.013469
2.46333
0.00840623
1.89269
0.00379765
1.45497
-0.00031538
1.11843
-0.00389304
0.8592
-0.00691304
0.659329
-0.00939987
0.505284
-0.0113852
0.386537
0.295268
-0.0129593
0.0383784
113.496
0.114038
85.8465
0.135371
64.987
0.131401
49.2042
0.116832
37.2733
0.0990523
28.254
0.0814513
21.4353
0.0655349
16.2772
0.0518013
12.3742
0.0402645
9.41854
0.0306389
7.17993
0.0225297
5.48296
0.0155331
4.1951
0.00934671
3.21571
0.0037738
2.4689
-0.00126792
1.89773
-0.00577572
1.45948
-0.00971256
1.12237
-0.0130499
0.862537
-0.0157822
0.662061
-0.0179575
0.507459
-0.0196336
0.388213
0.296554
-0.0209191
0.0248512
113.287
0.111513
85.7598
0.136726
64.9618
0.133112
49.2078
0.117376
37.2891
0.0978909
28.2735
0.0785468
21.4546
0.0610528
16.2947
0.0460069
12.3893
0.0334208
9.43113
0.0230055
7.19035
0.0143248
5.49164
0.00694277
4.20248
0.000528744
3.22213
-0.00513804
2.47457
-0.0101544
1.90275
-0.0145291
1.46385
-0.0182378
1.12608
-0.0212752
0.865575
-0.0236651
0.664451
-0.0254799
0.509273
-0.0268106
0.389544
0.29752
-0.0277769
-0.352869
113.173
-0.269501
85.6765
-0.207768
64.9001
-0.161706
49.1617
-0.127152
37.2545
-0.101206
28.2475
-0.0817349
21.4352
-0.0671797
16.2801
-0.0563308
12.3784
-0.0482938
9.42309
-0.0424272
7.18448
-0.0383056
5.48752
-0.0356324
4.19981
-0.034153
3.22065
-0.0336165
2.47404
-0.033737
1.90287
-0.0342194
1.46434
-0.034798
1.12665
-0.0352897
0.866067
-0.0355995
0.664761
-0.0357074
0.509381
-0.0356595
0.389496
0.297385
-0.0355233
-0.344185
113.066
-0.265969
85.5982
-0.207954
64.8421
-0.164611
49.1184
-0.132051
37.2219
-0.107573
28.2231
-0.0891811
21.4168
-0.0754224
16.2663
-0.0651478
12.3682
-0.0575091
9.41545
-0.0518783
7.17885
-0.0478418
5.48348
-0.0450976
4.19706
-0.043386
3.21894
-0.042454
2.4731
-0.0420226
1.90244
-0.0418233
1.46414
-0.0416336
1.12647
-0.0413283
0.865762
-0.0408709
0.664304
-0.0402849
0.508796
-0.0396466
0.388858
0.29676
-0.0390212
-0.335534
112.965
-0.262098
85.5248
-0.207525
64.7875
-0.166695
49.0776
-0.135975
37.1912
-0.112849
28.1999
-0.0954489
21.3994
-0.0824177
16.2533
-0.0726615
12.3584
-0.0653739
9.40817
-0.0599369
7.17341
-0.0559462
5.47949
-0.0530922
4.19421
-0.0511104
3.21696
-0.049748
2.47174
-0.0487394
1.90143
-0.0478515
1.46325
-0.0469134
1.12553
-0.04586
0.864709
-0.0447079
0.663152
-0.0435145
0.507602
-0.0423723
0.387716
0.295726
-0.0413379
-0.326976
112.871
-0.257998
85.4558
-0.206633
64.7361
-0.168141
49.0391
-0.139131
37.1622
-0.117258
28.1781
-0.100775
21.3829
-0.0884122
16.241
-0.0791282
12.3491
-0.0721528
9.40119
-0.0668756
7.16814
-0.0628992
5.47552
-0.0599044
4.19121
-0.0576228
3.21467
-0.0558053
2.46992
-0.0542069
1.89983
-0.0526381
1.46168
-0.0509856
1.12388
-0.049243
0.862966
-0.0474721
0.661381
-0.045755
0.505885
-0.0441915
0.386153
0.294359
-0.0428244
-0.318544
112.783
-0.253747
85.391
-0.205386
64.6878
-0.169081
49.0028
-0.141666
37.1348
-0.120961
28.1574
-0.10533
21.3672
-0.0935852
16.2292
-0.0847336
12.3403
-0.0780372
9.3945
-0.0728917
7.16299
-0.0689034
5.47153
-0.065743
4.18805
-0.0631395
3.21207
-0.0608516
2.46764
-0.0586622
1.89764
-0.056432
1.45945
-0.0541091
1.12155
-0.051742
0.860599
-0.0494292
0.659068
-0.0472695
0.503726
-0.0453605
0.384244
0.292726
-0.043727
-0.310264
112.701
-0.2494
85.3302
-0.203864
64.6422
-0.169612
48.9685
-0.143693
37.1089
-0.124081
28.1378
-0.109244
21.3524
-0.0980734
16.218
-0.0896197
12.3318
-0.0831737
9.38805
-0.0781356
7.15796
-0.0741137
5.46751
-0.070768
4.18471
-0.0678271
3.20913
-0.065062
2.46487
-0.06229
1.89487
-0.0594276
1.45659
-0.0564849
1.11861
-0.0535602
0.857675
-0.0507805
0.656288
-0.0482524
0.501198
-0.0460639
0.382056
0.290882
-0.0442202
-0.302154
112.623
-0.245001
85.273
-0.202127
64.5994
-0.169809
48.9362
-0.145298
37.0844
-0.126712
28.1192
-0.112618
21.3383
-0.101982
16.2074
-0.0938954
12.3237
-0.0876746
9.38183
-0.0827234
7.153
-0.0786498
5.46343
-0.0751038
4.18116
-0.071816
3.20584
-0.0685743
2.46163
-0.0652365
1.89153
-0.0617784
1.45313
-0.0582708
1.1151
-0.0548549
0.854259
-0.0516778
0.653111
-0.0488471
0.498367
-0.046435
0.379644
0.288875
-0.0444274
-0.294223
112.551
-0.24058
85.2194
-0.200224
64.559
-0.169733
48.9057
-0.146549
37.0612
-0.128928
28.1015
-0.115533
21.3249
-0.105395
16.1973
-0.0976487
12.316
-0.0916312
9.37581
-0.0867493
7.14812
-0.0826092
5.45929
-0.0788523
4.17741
-0.0752134
3.20221
-0.0715027
2.45792
-0.0676231
1.88765
-0.063611
1.44912
-0.059595
1.11109
-0.0557512
0.850416
-0.0522395
0.649599
-0.0491626
0.49529
-0.0465733
0.377055
0.28674
-0.0444386
-0.286481
112.483
-0.236164
85.1691
-0.198194
64.5211
-0.16943
48.877
-0.1475
37.0393
-0.13079
28.0848
-0.118053
21.3122
-0.108381
16.1876
-0.100951
12.3085
-0.0951176
9.36998
-0.0902898
7.1433
-0.0860716
5.45508
-0.082097
4.17343
-0.0781082
3.19822
-0.0739422
2.45376
-0.0695501
1.88326
-0.0650292
1.4446
-0.0605607
1.10662
-0.0563484
0.846204
-0.0525567
0.645808
-0.0492812
0.492015
-0.0465523
0.374326
0.284508
-0.0443199
-0.278931
112.42
-0.231773
85.1219
-0.196067
64.4853
-0.168941
48.8498
-0.148199
37.0185
-0.132349
28.069
-0.120232
21.3001
-0.110999
16.1784
-0.103863
12.3014
-0.0981959
9.36431
-0.0934093
7.13851
-0.0891041
5.45077
-0.0849086
4.16924
-0.0805755
3.19388
-0.0759729
2.44915
-0.0711022
1.87839
-0.0661195
1.43962
-0.0612524
1.10175
-0.0567255
0.841677
-0.0527019
0.641784
-0.0492664
0.488579
-0.0464282
0.371488
0.282201
-0.0441206
-0.271577
112.361
-0.227423
85.0778
-0.193869
64.4518
-0.168298
48.8243
-0.148683
36.9989
-0.133649
28.054
-0.122118
21.2885
-0.113296
16.1695
-0.106435
12.2945
-0.10092
9.3588
-0.0961635
7.13375
-0.0917648
5.44637
-0.0873487
4.16482
-0.0826813
3.18922
-0.0776654
2.44414
-0.072353
1.87308
-0.0669563
1.43422
-0.0617413
1.09654
-0.0569483
0.836884
-0.0527345
0.637571
-0.0491709
0.485016
-0.0462473
0.368564
0.279837
-0.043883
-0.26442
112.306
-0.223129
85.0365
-0.191623
64.4203
-0.167531
48.8002
-0.148988
36.9804
-0.134728
28.0397
-0.123751
21.2776
-0.115318
16.1611
-0.108713
12.2879
-0.103336
9.35342
-0.0986012
7.12902
-0.0941051
5.44188
-0.0894716
4.16019
-0.0844836
3.18423
-0.0790814
2.43874
-0.0733665
1.86737
-0.0676035
1.42846
-0.0620889
1.09102
-0.0570725
0.831868
-0.0527049
0.633203
-0.0490408
0.481352
-0.0460523
0.365576
0.277431
-0.0436469
-0.257461
112.255
-0.218901
84.9979
-0.189349
64.3907
-0.166666
48.7775
-0.149142
36.9628
-0.135619
28.0262
-0.125167
21.2671
-0.117101
16.153
-0.110736
12.2816
-0.105485
9.34817
-0.100765
7.1243
-0.09617
5.43728
-0.0913254
4.15535
-0.0860338
3.17894
-0.0802753
2.43298
-0.074199
1.86129
-0.0681163
1.42238
-0.0623482
1.08526
-0.0571473
0.826667
-0.052657
0.628713
-0.048916
0.477611
-0.0458781
0.362538
0.274996
-0.0434424
-0.250701
112.208
-0.21475
84.962
-0.187063
64.363
-0.165725
48.7561
-0.149174
36.9463
-0.136351
28.0134
-0.126399
21.2572
-0.11868
16.1453
-0.112541
12.2754
-0.107407
9.34304
-0.102696
7.11959
-0.0980013
5.43259
-0.0929546
4.1503
-0.0873793
3.17336
-0.0812971
2.4269
-0.0749017
1.85489
-0.068545
1.41602
-0.0625667
1.07928
-0.0572165
0.821317
-0.0526304
0.624126
-0.048831
0.473812
-0.0457558
0.359463
0.272539
-0.0432983
-0.24414
112.164
-0.210684
84.9285
-0.184781
64.3371
-0.164728
48.7361
-0.149107
36.9307
-0.136953
28.0012
-0.127476
21.2477
-0.120086
16.1379
-0.11416
12.2695
-0.109133
9.33801
-0.104427
7.11488
-0.0996363
5.4278
-0.0943988
4.14506
-0.0885627
3.16753
-0.0821911
2.42052
-0.0755202
1.84822
-0.0689337
1.40943
-0.0627851
1.07313
-0.0573182
0.81585
-0.0526593
0.619468
-0.0488168
0.469969
-0.0457143
0.35636
0.270065
-0.0432408
-0.237776
112.124
-0.206713
84.8974
-0.182518
64.313
-0.163697
48.7173
-0.148965
36.9159
-0.13745
27.9897
-0.128427
21.2387
-0.12135
16.1309
-0.115625
12.2638
-0.110698
9.33308
-0.105995
7.11018
-0.101111
5.42291
-0.0956959
4.13965
-0.0896239
3.16146
-0.0829987
2.4139
-0.0760963
1.84132
-0.0693231
1.40266
-0.063042
1.06685
-0.0574886
0.810297
-0.0527771
0.614756
-0.0489039
0.466096
-0.0457822
0.353239
0.267581
-0.043298
-0.23161
112.087
-0.202842
84.8687
-0.180287
64.2904
-0.162647
48.6996
-0.148768
36.9021
-0.137866
27.9788
-0.129276
21.2301
-0.122497
16.1241
-0.116963
12.2583
-0.11213
9.32825
-0.107428
7.10548
-0.102456
5.41794
-0.0968799
4.13407
-0.0905988
3.15518
-0.083757
2.40706
-0.076667
1.83423
-0.0697498
1.39574
-0.0633723
1.06047
-0.0577606
0.804685
-0.0530146
0.61001
-0.0491215
0.462203
-0.0459874
0.350105
0.265091
-0.0434971
-0.225639
112.053
-0.19908
84.8421
-0.1781
64.2694
-0.161595
48.6831
-0.148537
36.889
-0.138222
27.9685
-0.130048
21.2219
-0.123554
16.1176
-0.118201
12.2529
-0.113456
9.32351
-0.108757
7.10078
-0.103704
5.41289
-0.0979832
4.12835
-0.0915215
3.14871
-0.0845006
2.40004
-0.0772667
1.827
-0.0702474
1.38872
-0.0638087
1.05403
-0.0581646
0.799041
-0.0534024
0.605248
-0.0495022
0.458303
-0.0463637
0.346966
0.262599
-0.043872
-0.219864
112.022
-0.195431
84.8177
-0.175969
64.25
-0.160558
48.6677
-0.148289
36.8767
-0.138541
27.9587
-0.130766
21.2141
-0.124545
16.1114
-0.119365
12.2477
-0.114705
9.31885
-0.110009
7.09609
-0.104883
5.40777
-0.099036
4.1225
-0.0924231
3.1421
-0.0852614
2.39288
-0.0779266
1.81966
-0.070847
1.38164
-0.0643808
1.04757
-0.05873
0.79339
-0.0539723
0.60049
-0.0500798
0.45441
-0.0469456
0.343832
0.260109
-0.0444555
-0.214284
111.994
-0.191903
84.7953
-0.173906
64.232
-0.159551
48.6534
-0.148044
36.8652
-0.138841
27.9495
-0.131451
21.2067
-0.125493
16.1054
-0.12048
12.2427
-0.1159
9.31427
-0.11121
7.0914
-0.10602
5.40258
-0.100067
4.11655
-0.0933332
3.13537
-0.0860692
2.38561
-0.0786759
1.81227
-0.0715765
1.37454
-0.0651171
1.04111
-0.0594874
0.78776
-0.0547579
0.595761
-0.0508859
0.450538
-0.0477584
0.340704
0.257619
-0.0452679
-0.208896
111.969
-0.188499
84.7749
-0.17192
64.2154
-0.158587
48.64
-0.147818
36.8545
-0.139143
27.9408
-0.132124
21.1997
-0.126418
16.0997
-0.121566
12.2379
-0.117065
9.30977
-0.112386
7.08672
-0.107142
5.39733
-0.101103
4.11051
-0.0942779
3.12854
-0.0869502
2.37828
-0.07954
1.80486
-0.0724612
1.36747
-0.0660442
1.03469
-0.060467
0.782183
-0.0557844
0.591078
-0.0519388
0.446693
-0.0488221
0.337587
0.255138
-0.0463416
-0.2037
111.947
-0.185227
84.7564
-0.170023
64.2002
-0.157681
48.6277
-0.147627
36.8444
-0.139464
27.9327
-0.132806
21.1931
-0.127345
16.0942
-0.122648
12.2332
-0.118225
9.30534
-0.11356
7.08205
-0.108272
5.39204
-0.10217
4.10441
-0.095283
3.12165
-0.0879302
2.37093
-0.0805436
1.79747
-0.073525
1.36045
-0.0671883
1.02835
-0.0616927
0.776687
-0.0570722
0.586457
-0.0532664
0.442887
-0.0501833
0.334504
0.252692
-0.0477371
-0.198695
111.927
-0.182091
84.7398
-0.168223
64.1863
-0.156845
48.6163
-0.147488
36.8351
-0.139823
27.925
-0.133514
21.1868
-0.128291
16.089
-0.123747
12.2286
-0.1194
9.301
-0.114755
7.07741
-0.109435
5.38673
-0.103292
4.09827
-0.0963708
3.11473
-0.0890311
2.36359
-0.0817077
1.79015
-0.0747881
1.35353
-0.0685685
1.02213
-0.06318
0.771299
-0.0586458
0.581923
-0.0549125
0.439153
-0.0518914
0.331483
0.250295
-0.0494952
-0.193879
111.91
-0.179096
84.725
-0.166531
64.1737
-0.156092
48.6059
-0.147415
36.8264
-0.140236
27.9178
-0.134269
21.1808
-0.129277
16.084
-0.124883
12.2242
-0.120613
9.29673
-0.115994
7.07279
-0.110653
5.38138
-0.10449
4.0921
-0.097563
3.10781
-0.090274
2.3563
-0.0830521
1.78293
-0.0762672
1.34674
-0.0701984
1.01606
-0.0649497
0.76605
-0.0605436
0.577517
-0.056918
0.435528
-0.0539867
0.328552
0.247963
-0.0516549
-0.189253
111.896
-0.176247
84.712
-0.164953
64.1625
-0.155434
48.5964
-0.147421
36.8184
-0.140718
27.9111
-0.135086
21.1752
-0.130322
16.0793
-0.126075
12.22
-0.121884
9.29254
-0.117297
7.0682
-0.111946
5.37603
-0.105786
4.08594
-0.0988767
3.1009
-0.0916743
2.3491
-0.0845912
1.77585
-0.0779731
1.34012
-0.0720933
1.01018
-0.0670257
0.760982
-0.0627838
0.573276
-0.0592991
0.432043
-0.0564899
0.325742
0.245722
-0.0542491
-0.178404
111.875
-0.163071
84.6967
-0.151271
64.1507
-0.142103
48.5872
-0.134797
36.8111
-0.12889
27.9052
-0.124017
21.1703
-0.119921
16.0752
-0.116257
12.2163
-0.112586
9.28887
-0.108508
7.06412
-0.103682
5.37121
-0.0981161
4.08038
-0.0918642
3.09464
-0.0853953
2.34263
-0.0790697
1.76952
-0.0731819
1.33424
-0.0679921
1.00499
-0.0635348
0.756525
-0.0598228
0.569563
-0.0567913
0.429012
-0.054352
0.323303
0.243772
-0.0524022
-0.142069
111.859
-0.130113
84.6847
-0.120908
64.1414
-0.113753
48.58
-0.10804
36.8054
-0.103408
27.9006
-0.0995695
21.1664
-0.0963277
16.0719
-0.0934164
12.2134
-0.090485
9.28594
-0.087225
7.06086
-0.0833711
5.36735
-0.0789445
4.07595
-0.0740021
3.0897
-0.068934
2.33756
-0.0640152
1.7646
-0.0594582
1.32968
-0.0554789
1.00101
-0.0520737
0.75312
-0.049264
0.566754
-0.0469886
0.426736
-0.0451591
0.321474
0.242309
-0.0436958
-0.113104
111.847
-0.103761
84.6754
-0.0965673
64.1343
-0.0909733
48.5744
-0.0864987
36.8009
-0.08286
27.897
-0.0798338
21.1634
-0.0772665
16.0693
-0.0749538
12.2111
-0.0726167
9.2836
-0.0700167
7.05826
-0.0669468
5.36428
-0.0634315
4.07244
-0.0595284
3.0858
-0.0555519
2.33359
-0.0517186
1.76077
-0.0481803
1.32614
-0.0451162
0.99795
-0.0425118
0.750515
-0.0403683
0.56461
-0.0386448
0.425013
-0.03727
0.320099
0.241212
-0.0361731
-0.0900076
111.837
-0.0826811
84.6681
-0.0770388
64.1286
-0.0726506
48.5701
-0.0691357
36.7974
-0.0662707
27.8941
-0.0638797
21.161
-0.0618438
16.0673
-0.0600056
12.2093
-0.0581439
9.28174
-0.0560735
7.05619
-0.0536336
5.36184
-0.0508454
4.06965
-0.0477674
3.08272
-0.0446444
2.33046
-0.0416535
1.75778
-0.0389028
1.32339
-0.0365313
0.995578
-0.0345438
0.748528
-0.0328931
0.56296
-0.0315691
0.423689
-0.03053
0.319061
0.240391
-0.0297088
-0.0716027
111.829
-0.065839
84.6623
-0.0614006
64.1242
-0.0579485
48.5666
-0.0551805
36.7946
-0.0529196
27.8918
-0.0510272
21.1591
-0.0494107
16.0657
-0.0479487
12.2078
-0.0464665
9.28025
-0.0448191
7.05455
-0.0428831
5.35991
-0.0406728
4.06744
-0.0382473
3.08029
-0.0357919
2.32801
-0.0334544
1.75544
-0.0313137
1.32125
-0.0294721
0.993736
-0.0279494
0.747005
-0.0266699
0.56168
-0.0256409
0.42266
-0.0248494
0.318269
0.239775
-0.0242334
-0.0569133
111.823
-0.0523428
84.6577
-0.0488243
64.1207
-0.0460883
48.5639
-0.0438937
36.7924
-0.042099
27.89
-0.0405939
21.1576
-0.0393059
16.0644
-0.0381405
12.2066
-0.0369602
9.27907
-0.0356513
7.05324
-0.0341192
5.35838
-0.0323717
4.06569
-0.030466
3.07839
-0.0285395
2.32608
-0.026714
1.75361
-0.0250514
1.31959
-0.0236246
0.99231
-0.0224475
0.745828
-0.0214603
0.560693
-0.0206622
0.421862
-0.0200539
0.317661
0.23931
-0.0195885
-0.0453697
111.818
-0.0418456
84.6542
-0.0391318
64.1179
-0.0370203
48.5618
-0.0353223
36.7907
-0.0339281
27.8887
-0.0327522
21.1565
-0.0317396
16.0634
-0.0308181
12.2057
-0.0298799
9.27814
-0.028835
7.05219
-0.0276108
5.35715
-0.0262111
4.06429
-0.02469
3.07687
-0.0231527
2.32454
-0.0216983
1.75216
-0.0203814
1.31827
-0.0192534
0.991181
-0.0183166
0.744891
-0.0175431
0.559919
-0.0169171
0.421236
-0.0164383
0.317182
0.238947
-0.0160755
-0.0359223
111.815
-0.0330221
84.6513
-0.0307914
64.1157
-0.0290583
48.56
-0.0276683
36.7893
-0.0265301
27.8875
-0.025573
21.1555
-0.0247519
16.0626
-0.0240094
12.205
-0.0232607
9.27739
-0.0224353
7.05137
-0.0214777
5.35619
-0.0203871
4.0632
-0.0192109
3.07569
-0.0180253
2.32336
-0.0169041
1.75104
-0.0158985
1.31727
-0.0150371
0.99032
-0.0143167
0.74417
-0.013735
0.559337
-0.0132682
0.420769
-0.0129026
0.316816
0.238667
-0.0126229
-0.0283931
111.807
-0.022187
84.6451
-0.0172353
64.1108
-0.0132731
48.5561
-0.0100571
36.7861
-0.00741551
27.8849
-0.0052091
21.1533
-0.00333995
16.0607
-0.00171343
12.2033
-0.000219431
9.27589
0.00122958
7.04992
0.00269933
5.35472
0.00418477
4.06171
0.00564459
3.07423
0.00700661
2.32199
0.00819873
1.74984
0.00921278
1.31625
0.0100338
0.989498
0.0106712
0.743533
0.0111614
0.558847
0.0115498
0.42038
0.0118395
0.316526
0.238467
0.0120402
-0.0298156
111.799
-0.0232989
84.6386
-0.0181004
64.1056
-0.0139413
48.5519
-0.0105654
36.7827
-0.00779115
27.8821
-0.00547217
21.151
-0.00350609
16.0587
-0.00179472
12.2016
-0.000223888
9.27432
0.00129659
7.0484
0.00283528
5.35319
0.00438644
4.06016
0.0059047
3.07271
0.00731931
2.32058
0.00855368
1.74861
0.00959096
1.31522
0.0104379
0.988652
0.0110948
0.742876
0.0115989
0.558343
0.0119942
0.419985
0.0122923
0.316228
0.238261
0.0124977
-0.0313095
111.79
-0.0244666
84.6318
-0.0190089
64.1001
-0.0146431
48.5475
-0.0110993
36.7792
-0.00818595
27.8792
-0.00574879
21.1485
-0.00368084
16.0567
-0.00188028
12.1998
-0.000228714
9.27267
0.00136678
7.0468
0.00297722
5.35158
0.00459675
4.05854
0.00617506
3.07113
0.00764266
2.31911
0.00892083
1.74733
0.00997861
1.31416
0.010856
0.987774
0.0115315
0.7422
0.0120501
0.557824
0.0124496
0.419585
0.0127551
0.315923
0.238049
0.0129674
-0.0328782
111.781
-0.0256925
84.6246
-0.0199627
64.0944
-0.0153801
48.543
-0.0116601
36.7755
-0.00860085
27.8761
-0.00603957
21.146
-0.00386459
16.0545
-0.00197017
12.1979
-0.000233791
9.27093
0.00144048
7.04513
0.00312571
5.34989
0.00481632
4.05685
0.00645645
3.06949
0.0079772
2.31759
0.00930037
1.74601
0.0103788
1.31308
0.0112877
0.986865
0.0119803
0.741508
0.0125126
0.557291
0.0129145
0.419183
0.0132257
0.315611
0.237829
0.0134451
-0.034525
111.771
-0.0269797
84.617
-0.0209645
64.0884
-0.0161541
48.5381
-0.0122493
36.7716
-0.00903681
27.8729
-0.00634524
21.1433
-0.00405778
16.0522
-0.00206461
12.1959
-0.000239011
9.26911
0.00151798
7.04337
0.00328124
5.34813
0.00504561
4.05509
0.00674944
3.06779
0.00832358
2.31602
0.00969265
1.74464
0.0107955
1.31198
0.0117322
0.985928
0.01244
0.740799
0.0129835
0.556747
0.0133879
0.418779
0.0137031
0.315296
0.237603
0.0139289
-0.0362546
111.761
-0.0283314
84.6091
-0.0220162
64.082
-0.0169669
48.5331
-0.0128682
36.7675
-0.00949492
27.8696
-0.00666653
21.1405
-0.00426084
16.0498
-0.00216372
12.1938
-0.000244284
9.26719
0.00159962
7.04153
0.00344435
5.34628
0.00528528
4.05325
0.00705473
3.06602
0.00868282
2.31439
0.0100981
1.74322
0.0112309
1.31084
0.0121879
0.984971
0.0129091
0.740078
0.0134602
0.556196
0.0138667
0.418372
0.014183
0.31498
0.237372
0.0144139
-0.0380702
111.751
-0.0297506
84.6008
-0.0231207
64.0754
-0.0178205
48.5278
-0.0135182
36.7632
-0.0099763
27.866
-0.00700425
21.1375
-0.00447423
16.0473
-0.00226772
12.1916
-0.000249459
9.26517
0.00168579
7.03959
0.00361568
5.34435
0.00553605
4.05133
0.007373
3.06418
0.00905609
2.31271
0.0105168
1.74176
0.0116847
1.30968
0.0126527
0.984002
0.013385
0.739346
0.0139393
0.555641
0.0143458
0.417965
0.014659
0.314666
0.237139
0.0148925
-0.039977
111.74
-0.0312407
84.5921
-0.0242802
64.0685
-0.0187169
48.5222
-0.0142011
36.7587
-0.0104821
27.8623
-0.00735915
21.1344
-0.00469844
16.0446
-0.0023767
12.1893
-0.000254412
9.26305
0.00177676
7.03756
0.00379573
5.34233
0.00579855
4.04932
0.00770473
3.06228
0.00944429
2.31097
0.0109487
1.74026
0.0121536
1.30847
0.0131243
0.983031
0.0138651
0.738605
0.0144183
0.555088
0.0148217
0.417561
0.0151272
0.314361
0.236907
0.0153593
-0.0419788
111.728
-0.0328053
84.5829
-0.0254978
64.0612
-0.0196582
48.5164
-0.0149183
36.7539
-0.0110135
27.8584
-0.00773208
21.1311
-0.00493393
16.0418
-0.00249089
12.1869
-0.000259092
9.26082
0.00187284
7.03543
0.0039849
5.34022
0.00607315
4.04724
0.00805011
3.0603
0.00984785
2.30917
0.011393
1.73871
0.0126338
1.30723
0.0136019
0.982063
0.0143482
0.737858
0.0148971
0.554538
0.0152945
0.417164
0.0155882
0.314067
0.236681
0.0158135
-0.0440807
111.716
-0.034448
84.5732
-0.0267763
64.0535
-0.0206466
48.5103
-0.0156716
36.749
-0.0115718
27.8543
-0.00812395
21.1276
-0.00518127
16.0389
-0.00261051
12.1843
-0.000263424
9.25847
0.00197415
7.0332
0.00418338
5.33801
0.00636004
4.04506
0.00840912
3.05825
0.0102667
2.30731
0.0118491
1.73713
0.0131221
1.30596
0.0140863
0.981099
0.014834
0.73711
0.0153768
0.553995
0.0157668
0.416773
0.0160455
0.313788
0.236468
0.0162584
-0.0462875
111.703
-0.0361726
84.5631
-0.0281187
64.0454
-0.0216846
48.5038
-0.0164628
36.7437
-0.0121582
27.85
-0.00853565
21.124
-0.00544099
16.0358
-0.00273583
12.1816
-0.000267487
9.256
0.00208085
7.03085
0.00439126
5.3357
0.00665921
4.04279
0.00878156
3.05613
0.0107003
2.30539
0.0123165
1.73551
0.0136167
1.30466
0.0145787
0.980136
0.0153232
0.736366
0.0158575
0.55346
0.01624
0.416391
0.0165034
0.313524
0.236272
0.0167
-0.0486049
111.69
-0.0379836
84.5525
-0.0295279
64.037
-0.0227745
48.4971
-0.0172937
36.7383
-0.0127743
27.8455
-0.00896812
21.1202
-0.00571369
16.0325
-0.00286717
12.1787
-0.000271318
9.2534
0.00219292
7.02838
0.00460859
5.33329
0.00697051
4.04043
0.00916705
3.05393
0.0111474
2.30341
0.0127949
1.73387
0.0141171
1.30333
0.0150805
0.979173
0.0158185
0.735628
0.0163417
0.552937
0.016715
0.416017
0.0169624
0.313277
0.236094
0.0171401
-0.0510376
111.676
-0.0398849
84.5414
-0.0310078
64.0281
-0.0239189
48.49
-0.0181663
36.7325
-0.0134214
27.8407
-0.00942243
21.1162
-0.00600006
16.0291
-0.00300483
12.1757
-0.000275059
9.25067
0.00231039
7.0258
0.00483525
5.33076
0.0072937
4.03797
0.00956503
3.05166
0.0116066
2.30137
0.0132834
1.73219
0.0146227
1.30199
0.0155919
0.978203
0.0163222
0.734897
0.0168325
0.552426
0.0171945
0.415655
0.0174256
0.313046
0.235933
0.0175865
-0.0535919
111.661
-0.0418809
84.5297
-0.0325614
64.0188
-0.0251205
48.4825
-0.0190827
36.7265
-0.014101
27.8357
-0.00989964
21.112
-0.00630076
16.0255
-0.00314923
12.1726
-0.000278868
9.2478
0.00243316
7.02309
0.00507113
5.32812
0.00762838