/*--------------------------------*- C++ -*----------------------------------*\
  =========                 |
  \\      /  F ield         | OpenFOAM: The Open Source CFD Toolbox
   \\    /   O peration     | Website:  https://openfoam.org
    \\  /    A nd           | Version:  7
     \\/     M anipulation  |
\*---------------------------------------------------------------------------*/
FoamFile
{
    version     2.0;
    format      ascii;
    class       volVectorField;
    location    "79";
    object      U;
}
// * * * * * * * * * * * * * * * * * * * * * * * * * * * * * * * * * * * * * //

dimensions      [0 1 -1 0 0 0 0];

internalField   nonuniform List<vector> 
12842
(
(15.4684 2.17673 4.86049e-19)
(15.4706 2.18666 3.37818e-19)
(15.4727 2.19637 1.20086e-19)
(15.4753 2.2084 -2.96988e-19)
(15.478 2.22425 1.27125e-18)
(15.4807 2.24535 0)
(15.4829 2.27337 0)
(15.4839 2.31035 1.17613e-19)
(15.483 2.35866 -1.02787e-18)
(15.4787 2.42095 -2.52225e-20)
(15.4693 2.49991 -4.00261e-19)
(15.4528 2.59805 1.29505e-20)
(15.4267 2.7172 -2.32764e-19)
(15.3887 2.85799 -1.77355e-20)
(15.3367 3.01952 3.35988e-20)
(15.2699 3.1989 9.45723e-20)
(15.1885 3.39125 5.82518e-20)
(15.0947 3.59004 0)
(14.9921 3.78786 4.34156e-22)
(14.8851 3.97741 -6.3755e-21)
(14.7788 4.1522 5.78117e-21)
(14.6778 4.30866 -8.84288e-21)
(14.5856 4.44079 1.58961e-20)
(15.4692 2.1765 -4.28954e-19)
(15.4735 2.18512 0)
(15.4776 2.19422 1.45266e-18)
(15.4828 2.20572 -9.46171e-19)
(15.489 2.22109 -1.02776e-18)
(15.4962 2.24181 0)
(15.504 2.2697 1.87241e-18)
(15.5123 2.30695 0)
(15.5203 2.35617 1.76729e-18)
(15.5268 2.42027 1.56741e-19)
(15.5302 2.50229 7.40991e-19)
(15.5283 2.60504 1.05979e-18)
(15.5182 2.73058 2.2314e-19)
(15.497 2.87957 -5.38684e-19)
(15.4618 3.05092 0)
(15.4106 3.24127 -1.05221e-19)
(15.3429 3.44501 -1.03655e-19)
(15.26 3.65477 2.44755e-19)
(15.1651 3.86233 0)
(15.0626 4.05983 -3.85184e-22)
(14.9581 4.24036 6.24904e-20)
(14.8565 4.40086 3.21968e-21)
(14.7629 4.53336 1.14747e-20)
(15.4702 2.17604 0)
(15.4757 2.18327 0)
(15.4814 2.19155 3.21856e-19)
(15.4889 2.20224 5.32587e-18)
(15.4981 2.21672 0)
(15.5091 2.23656 0)
(15.5221 2.26364 4.35619e-19)
(15.5369 2.30034 -1.86651e-18)
(15.5531 2.34945 -8.08961e-19)
(15.5698 2.41417 -7.81406e-19)
(15.5852 2.49784 -1.45546e-18)
(15.5972 2.60365 -1.03442e-18)
(15.6026 2.73397 -2.35269e-19)
(15.5979 2.88961 8.29609e-19)
(15.5794 3.06939 0)
(15.5443 3.26958 1.4914e-19)
(15.4911 3.48394 -1.90262e-19)
(15.4204 3.70432 -1.77945e-19)
(15.3349 3.92168 -3.71946e-19)
(15.2392 4.12758 2.2083e-19)
(15.1391 4.31458 -5.65723e-20)
(15.0397 4.48016 0)
(14.9474 4.61413 -1.17647e-20)
(15.4712 2.17537 -2.48323e-19)
(15.4774 2.18127 7.04519e-19)
(15.4844 2.18862 -2.2162e-18)
(15.4938 2.19832 -8.47369e-18)
(15.5055 2.21165 7.6918e-19)
(15.52 2.2302 -2.66938e-18)
(15.5376 2.25597 -1.80711e-19)
(15.5584 2.29145 1.83771e-18)
(15.5822 2.33961 3.05738e-18)
(15.6082 2.40388 -1.84304e-18)
(15.635 2.48796 3.52207e-18)
(15.6604 2.59539 -4.14051e-19)
(15.6809 2.72889 5.37861e-19)
(15.6925 2.88954 1.86161e-18)
(15.6909 3.07616 -3.08701e-19)
(15.6724 3.28477 3.95952e-19)
(15.6346 3.5086 1.38394e-19)
(15.5775 3.73884 4.15251e-19)
(15.5033 3.96569 3.25585e-20)
(15.4166 4.18018 2.42403e-19)
(15.3232 4.37427 7.60666e-20)
(15.2286 4.54592 1.05546e-19)
(15.1399 4.68272 -1.50684e-19)
(15.4722 2.17449 -2.63866e-18)
(15.4786 2.17924 0)
(15.4867 2.18561 3.72607e-19)
(15.4976 2.19419 3.01773e-18)
(15.5115 2.20614 2.97792e-19)
(15.5289 2.22309 7.17705e-18)
(15.5506 2.24708 3.10004e-19)
(15.5768 2.28072 -4.8065e-18)
(15.6075 2.32714 -3.45936e-18)
(15.6423 2.39 2.3392e-18)
(15.6799 2.47327 -3.76758e-18)
(15.7181 2.5809 -2.83372e-18)
(15.7534 2.71601 6.3782e-19)
(15.7813 2.87998 -4.02072e-18)
(15.7969 3.07176 -1.59838e-18)
(15.7956 3.28722 1.13327e-18)
(15.7743 3.51922 0)
(15.7323 3.75838 -4.06649e-19)
(15.6713 3.99426 0)
(15.5956 4.2174 1.04656e-19)
(15.5112 4.41909 1.47363e-19)
(15.4235 4.59776 -1.29687e-19)
(15.3405 4.73864 -2.85734e-20)
(15.4731 2.17347 2.37155e-18)
(15.4794 2.17726 0)
(15.4883 2.18266 0)
(15.5005 2.19005 4.78486e-18)
(15.516 2.20045 -3.57625e-18)
(15.5361 2.2155 -4.14324e-18)
(15.5613 2.23731 -6.36908e-18)
(15.5922 2.26855 5.30278e-18)
(15.6292 2.31251 0)
(15.672 2.37297 2.95331e-18)
(15.7197 2.45423 3.39557e-18)
(15.7701 2.56061 1.42175e-18)
(15.8199 2.69565 0)
(15.864 2.86114 2.15369e-18)
(15.8971 3.05623 1.34426e-18)
(15.9137 3.27681 -8.23471e-19)
(15.9101 3.51548 -2.18116e-19)
(15.8846 3.76248 1.51767e-18)
(15.8388 4.00681 0)
(15.7762 4.23857 -6.51915e-19)
(15.703 4.44832 2.12406e-19)
(15.6243 4.63488 6.92791e-19)
(15.5489 4.78099 -1.43574e-19)
(15.4739 2.17236 -2.59078e-19)
(15.4799 2.1754 0)
(15.4893 2.17987 0)
(15.5024 2.18606 -4.75131e-18)
(15.5193 2.19479 4.13175e-18)
(15.5413 2.20776 -5.42313e-19)
(15.5695 2.22706 3.76083e-18)
(15.6046 2.25546 3.7797e-19)
(15.6471 2.2963 -4.95709e-19)
(15.6971 2.35353 -3.35174e-18)
(15.754 2.43166 -3.90163e-19)
(15.816 2.53538 2.78867e-18)
(15.8796 2.6687 0)
(15.9396 2.83384 -2.72014e-18)
(15.9901 3.03029 2.57403e-19)
(16.0252 3.2541 -3.30655e-19)
(16.0401 3.49779 1.04261e-18)
(16.0328 3.75134 -8.83564e-19)
(16.0039 4.00328 -1.1587e-18)
(15.9566 4.24339 -2.79815e-19)
(15.897 4.46137 3.43445e-20)
(15.8294 4.65649 -4.1306e-19)
(15.7635 4.80868 -2.60595e-19)
(15.4745 2.17124 0)
(15.48 2.1737 -2.49863e-19)
(15.49 2.17727 2.98674e-18)
(15.5037 2.18225 -9.29539e-20)
(15.5216 2.18926 -4.2531e-18)
(15.5453 2.20001 7.07809e-19)
(15.5758 2.21659 -1.31319e-19)
(15.6143 2.24177 -3.08898e-18)
(15.6614 2.27895 0)
(15.7177 2.33212 -3.97909e-18)
(15.7829 2.40596 3.36962e-19)
(15.8557 2.50555 1.58918e-19)
(15.9327 2.63531 0)
(16.0085 2.79802 2.6695e-18)
(16.0767 2.99363 -2.20336e-18)
(16.1309 3.21851 0)
(16.1657 3.46527 -1.02778e-18)
(16.1781 3.72387 0)
(16.1683 3.98247 9.43798e-19)
(16.1385 4.23062 0)
(16.0947 4.45701 -4.25883e-19)
(16.0405 4.66153 2.59188e-19)
(15.9859 4.82077 3.4727e-19)
(15.4751 2.16999 0)
(15.48 2.17217 0)
(15.4902 2.17512 2.33065e-20)
(15.5041 2.17922 -1.95039e-19)
(15.5222 2.18485 4.80936e-18)
(15.5468 2.19372 4.08597e-18)
(15.579 2.2079 0)
(15.6199 2.23021 2.89323e-18)
(15.6705 2.26412 0)
(15.7313 2.31368 8.04426e-18)
(15.8026 2.38368 3.07211e-18)
(15.8832 2.47943 -2.33589e-18)
(15.9698 2.60568 -2.3567e-19)
(16.0575 2.76565 0)
(16.1396 2.95966 2.33793e-18)
(16.2094 3.18439 1.84147e-18)
(16.2609 3.43254 -1.69261e-19)
(16.2906 3.69409 1.26958e-18)
(16.298 3.95692 1.1321e-18)
(16.2849 4.21057 0)
(16.2565 4.44274 2.71669e-19)
(16.2158 4.65436 2.06791e-20)
(16.1727 4.81938 -2.02658e-19)
(15.4758 2.16872 -3.07114e-20)
(15.4799 2.17088 3.04858e-18)
(15.4904 2.1733 -2.78156e-18)
(15.5045 2.17669 0)
(15.5229 2.18121 8.77614e-20)
(15.5483 2.18862 1.14276e-19)
(15.5817 2.20095 -3.80258e-18)
(15.6245 2.22105 0)
(15.6777 2.2524 0)
(15.742 2.29906 -4.01641e-18)
(15.8181 2.36588 -3.26041e-18)
(15.9049 2.45833 -9.46294e-20)
(15.9995 2.58143 2.45036e-18)
(16.097 2.7387 -7.87111e-20)
(16.1907 2.93074 -3.22986e-19)
(16.2735 3.15445 3.34827e-19)
(16.3392 3.40264 -1.23581e-18)
(16.3839 3.66537 -1.16892e-18)
(16.4066 3.93038 -1.28272e-18)
(16.4084 4.18734 -9.31729e-19)
(16.3943 4.42318 2.99368e-19)
(16.3662 4.63969 -1.32369e-18)
(16.3346 4.80876 2.36902e-19)
(15.4763 2.16746 3.73776e-18)
(15.4797 2.16975 -3.45233e-18)
(15.4907 2.17168 8.33222e-20)
(15.5048 2.17441 2.76266e-18)
(15.5235 2.17788 -1.3262e-19)
(15.5496 2.18388 -4.1753e-18)
(15.5841 2.19447 7.21386e-18)
(15.6286 2.21245 1.98243e-19)
(15.6842 2.24136 -1.45678e-19)
(15.7518 2.28517 -4.23774e-18)
(15.8323 2.34875 1.22314e-19)
(15.925 2.43772 -2.98523e-18)
(16.0273 2.55729 -2.18153e-18)
(16.1344 2.71129 0)
(16.2394 2.90056 2.6601e-18)
(16.3353 3.12224 -3.89996e-18)
(16.4157 3.36926 -2.76924e-19)
(16.4763 3.63184 1.18245e-18)
(16.5155 3.89763 -1.24228e-20)
(16.5338 4.15659 1.17246e-18)
(16.536 4.39486 0)
(16.5226 4.6152 3.99715e-19)
(16.5047 4.78735 0)
(15.4767 2.16624 -5.99816e-18)
(15.4796 2.16878 -3.26841e-18)
(15.4908 2.17023 1.3913e-19)
(15.5049 2.17236 -5.41839e-18)
(15.524 2.17482 2.51313e-18)
(15.5506 2.17946 -1.19606e-19)
(15.5861 2.18837 -3.67893e-18)
(15.6321 2.2043 5.66514e-20)
(15.6899 2.23081 -1.68159e-19)
(15.7605 2.27178 4.36807e-18)
(15.8451 2.33206 0)
(15.9435 2.41735 2.72855e-18)
(16.0531 2.53302 2.1456e-19)
(16.1694 2.68316 -1.05833e-19)
(16.2858 2.86886 -2.75853e-18)
(16.395 3.08748 4.35187e-20)
(16.4905 3.33208 1.11846e-18)
(16.5677 3.59311 -1.94564e-18)
(16.6247 3.85817 0)
(16.6612 4.11761 -8.15835e-19)
(16.6814 4.35685 1.07352e-18)
(16.6849 4.57967 0)
(16.6824 4.75378 -6.02061e-19)
(15.4769 2.16511 2.10358e-18)
(15.4794 2.16795 4.24506e-20)
(15.491 2.16893 1.38637e-19)
(15.505 2.1705 2.60668e-18)
(15.5242 2.17201 -4.92199e-18)
(15.5514 2.17534 2.03107e-20)
(15.5878 2.1826 5.30366e-20)
(15.6351 2.19652 3.26975e-18)
(15.6949 2.22066 -7.58339e-20)
(15.7682 2.25877 0)
(15.8567 2.31565 3.60066e-18)
(15.9603 2.39704 8.49228e-20)
(16.077 2.50843 8.45212e-20)
(16.2025 2.65413 2.22887e-20)
(16.3301 2.83546 -2.72609e-19)
(16.4528 3.04998 2.1551e-18)
(16.564 3.29089 -1.26187e-18)
(16.6588 3.5489 -1.88567e-19)
(16.7347 3.81157 -4.14632e-19)
(16.7909 4.06975 1.11825e-18)
(16.8309 4.30817 -7.59979e-19)
(16.8529 4.5318 1.54621e-18)
(16.8677 4.7065 -9.9327e-19)
(15.4771 2.16407 2.20516e-18)
(15.4792 2.16724 3.12793e-18)
(15.491 2.16777 1.21972e-20)
(15.505 2.16883 2.74424e-18)
(15.5244 2.16942 4.97536e-18)
(15.5519 2.17146 -2.04383e-20)
(15.5891 2.17713 -5.37559e-20)
(15.6376 2.18906 4.59892e-20)
(15.6992 2.21083 -2.73005e-18)
(15.7751 2.24604 2.30414e-18)
(15.8672 2.2994 -3.79223e-18)
(15.9758 2.37665 -3.0028e-18)
(16.0994 2.48335 2.50985e-18)
(16.2338 2.62402 0)
(16.3727 2.80013 1.5601e-18)
(16.5093 3.00946 0)
(16.6366 3.24532 1.68315e-18)
(16.7498 3.49871 1.0497e-18)
(16.8458 3.75713 -1.95862e-20)
(16.9228 4.01205 -1.24985e-18)
(16.9841 4.24751 -2.5248e-20)
(17.0263 4.46982 8.30313e-21)
(17.0598 4.64334 -3.99104e-19)
(15.4772 2.16313 -1.71004e-20)
(15.4791 2.16664 3.04891e-20)
(15.4911 2.16673 -1.17652e-20)
(15.5049 2.16731 -2.74746e-18)
(15.5244 2.16702 -2.47845e-18)
(15.5522 2.16782 0)
(15.5901 2.17192 3.54531e-20)
(15.6397 2.18187 -3.31328e-18)
(15.703 2.20128 -4.12559e-20)
(15.7811 2.23353 -2.30851e-18)
(15.8766 2.28324 1.97165e-18)
(15.9901 2.35608 4.67987e-18)
(16.1203 2.45766 -2.42589e-18)
(16.2636 2.59264 1.94872e-18)
(16.4139 2.76262 1.61067e-19)
(16.5645 2.96557 2.29056e-20)
(16.7085 3.19489 -9.20248e-20)
(16.8407 3.44184 -3.3222e-19)
(16.9576 3.6939 2.25835e-19)
(17.0566 3.9432 -3.84305e-19)
(17.1402 4.17317 -2.8078e-20)
(17.2038 4.39154 3.19036e-19)
(17.2573 4.56166 0)
(15.4773 2.16229 -4.69751e-20)
(15.4789 2.16613 0)
(15.4911 2.16579 0)
(15.5047 2.16594 -2.73946e-18)
(15.5243 2.16479 -2.54367e-18)
(15.5524 2.16437 2.25531e-18)
(15.5909 2.16693 2.75413e-20)
(15.6415 2.17492 -3.02962e-20)
(15.7063 2.19195 2.81797e-18)
(15.7865 2.22118 -4.21667e-20)
(15.8852 2.26707 8.92591e-20)
(16.0032 2.33522 -1.58645e-18)
(16.1399 2.4312 0)
(16.2919 2.55978 -2.07267e-18)
(16.4537 2.72264 -3.2963e-18)
(16.6185 2.91791 -1.37171e-18)
(16.7796 3.13902 -8.54649e-19)
(16.9312 3.37753 0)
(17.0696 3.62082 0)
(17.1913 3.86182 6.90652e-19)
(17.298 4.08332 4.83681e-19)
(17.3838 4.29462 -9.85775e-19)
(17.4578 4.45867 0)
(15.4773 2.16156 -2.41696e-18)
(15.4788 2.16571 1.5163e-20)
(15.491 2.16495 -5.5772e-21)
(15.5045 2.16469 2.72247e-18)
(15.5241 2.16272 5.05996e-18)
(15.5524 2.1611 -4.49045e-18)
(15.5915 2.16214 -2.78453e-20)
(15.6429 2.16816 -3.07046e-20)
(15.709 2.18278 4.03469e-20)
(15.7912 2.20891 0)
(15.8929 2.25081 -1.95724e-18)
(16.0152 2.31394 1.64941e-18)
(16.1582 2.40379 0)
(16.3189 2.52519 0)
(16.4921 2.67985 1.56085e-18)
(16.6712 2.866 1.11643e-19)
(16.8495 3.07707 9.72384e-19)
(17.0209 3.30489 7.48438e-19)
(17.1811 3.5367 -1.08969e-18)
(17.3256 3.76634 -3.99309e-19)
(17.4555 3.97601 1.59131e-18)
(17.5635 4.17669 -1.48166e-18)
(17.6583 4.33153 9.83165e-19)
(15.4772 2.16092 1.20204e-18)
(15.4787 2.16535 1.3731e-18)
(15.491 2.16419 1.45863e-20)
(15.5043 2.16356 -1.92784e-20)
(15.5239 2.16078 -2.55147e-18)
(15.5522 2.158 2.28194e-18)
(15.5918 2.15751 -1.83994e-20)
(15.6439 2.16156 -6.85016e-21)
(15.7113 2.17374 4.08266e-20)
(15.7953 2.19667 2.17481e-20)
(15.8997 2.23437 -2.84852e-20)
(16.0262 2.29213 -1.65185e-18)
(16.1752 2.3753 1.42766e-18)
(16.3444 2.48867 -6.35304e-20)
(16.5289 2.63394 0)
(16.7223 2.80939 -1.32966e-19)
(16.9177 3.00838 1.21171e-19)
(17.1089 3.22304 -7.54318e-19)
(17.2906 3.4404 1.37678e-18)
(17.4576 3.65532 8.14861e-19)
(17.6101 3.84948 -5.53805e-19)
(17.7396 4.03565 -8.29963e-19)
(17.8542 4.17788 1.07761e-18)
(15.4772 2.16037 -1.63361e-20)
(15.4786 2.16506 -1.38608e-18)
(15.4909 2.16351 0)
(15.504 2.16253 0)
(15.5235 2.15896 0)
(15.552 2.15503 0)
(15.5919 2.15303 1.85779e-20)
(15.6447 2.15509 -8.76536e-21)
(15.7131 2.16477 -2.06171e-20)
(15.7987 2.1844 2.20049e-20)
(15.9057 2.2177 -2.88295e-20)
(16.036 2.26972 0)
(16.1909 2.34557 -2.78322e-18)
(16.3683 2.45 7.96901e-20)
(16.5638 2.58458 -1.66607e-19)
(16.7713 2.74762 1.56261e-18)
(16.9836 2.93234 -1.25623e-19)
(17.194 3.13114 2.16303e-19)
(17.3965 3.33089 -2.58625e-19)
(17.5848 3.52759 4.37791e-19)
(17.7584 3.7025 -6.25112e-19)
(17.9075 3.87022 0)
(18.0401 3.9963 6.17729e-19)
(15.4771 2.15991 -2.37551e-18)
(15.4785 2.16481 -6.74722e-19)
(15.4908 2.16291 -1.01548e-20)
(15.5037 2.16158 1.38919e-18)
(15.5231 2.15726 1.28671e-18)
(15.5515 2.15218 1.08425e-20)
(15.5917 2.14867 -2.06656e-18)
(15.645 2.14873 1.76254e-18)
(15.7145 2.15586 1.44547e-18)
(15.8015 2.17206 0)
(15.9108 2.20074 3.71548e-20)
(16.0447 2.2466 -1.76628e-18)
(16.2051 2.31448 1.4543e-18)
(16.3904 2.40897 1.09473e-18)
(16.5966 2.53147 9.30351e-19)
(16.8177 2.68026 0)
(17.0461 2.84835 0)
(17.2747 3.0285 -8.49324e-19)
(17.4966 3.20737 -9.38867e-19)
(17.7043 3.38232 4.6526e-19)
(17.8966 3.53426 3.40576e-19)
(18.0625 3.67991 4.66106e-19)
(18.2101 3.78674 -6.54133e-19)
(15.477 2.15952 1.17878e-18)
(15.4784 2.16461 6.77502e-19)
(15.4907 2.16235 -7.39705e-21)
(15.5033 2.1607 7.66582e-21)
(15.5226 2.15563 -1.28658e-18)
(15.551 2.14942 -1.15171e-18)
(15.5914 2.14439 1.00574e-18)
(15.6452 2.14241 -1.74617e-18)
(15.7154 2.14694 -1.43924e-18)
(15.8037 2.1596 -3.5008e-20)
(15.915 2.18339 0)
(16.0522 2.22267 1.7186e-18)
(16.2177 2.28187 1.43788e-18)
(16.4104 2.36538 -1.16249e-18)
(16.6267 2.47432 -8.00586e-19)
(16.8606 2.6069 -3.76709e-19)
(17.1042 2.75595 -3.11357e-19)
(17.3494 2.91461 1.73138e-18)
(17.5884 3.06956 0)
(17.8126 3.21975 0)
(18.02 3.34624 3.54835e-19)
(18.1988 3.46687 -8.99928e-19)
(18.3576 3.55266 -6.51996e-19)
(15.4769 2.15923 -1.12051e-18)
(15.4783 2.16445 0)
(15.4905 2.1619 0)
(15.5029 2.15995 -2.76984e-18)
(15.522 2.15417 1.27793e-18)
(15.5503 2.14684 1.17824e-18)
(15.5908 2.14026 -4.04779e-21)
(15.6449 2.13619 8.66191e-19)
(15.7158 2.13802 3.43792e-20)
(15.8052 2.14699 -1.25584e-18)
(15.9183 2.16567 3.769e-20)
(16.0584 2.19793 -4.93385e-20)
(16.2285 2.24776 -1.43884e-18)
(16.4281 2.31922 1.1933e-18)
(16.6537 2.41307 8.97173e-19)
(16.8993 2.52747 -7.80723e-19)
(17.1564 2.65513 7.14543e-19)
(17.416 2.78972 -8.70336e-19)
(17.6692 2.91812 0)
(17.9063 3.04072 0)
(18.1246 3.13968 -3.27183e-19)
(18.3118 3.23286 2.32059e-19)
(18.4774 3.29622 -6.46897e-19)
(15.4767 2.15891 2.86619e-20)
(15.4784 2.16424 -7.05704e-19)
(15.4903 2.16129 0)
(15.5026 2.159 6.94484e-19)
(15.5216 2.15244 -2.57985e-18)
(15.5499 2.144 1.0968e-20)
(15.5905 2.13595 -1.82212e-20)
(15.6448 2.12991 -8.97137e-19)
(15.7161 2.12904 2.10299e-20)
(15.8062 2.1342 1.25956e-18)
(15.9207 2.14744 -2.95164e-20)
(16.0634 2.17214 -8.428e-19)
(16.2376 2.21175 -9.36846e-20)
(16.4432 2.26999 -1.12562e-18)
(16.677 2.34721 -1.03197e-18)
(16.9328 2.44158 7.77292e-20)
(17.2013 2.54569 0)
(17.4725 2.65392 -1.1986e-19)
(17.7364 2.75369 1.54744e-19)
(17.9822 2.84685 0)
(18.2067 2.91739 3.32329e-19)
(18.3976 2.98235 -2.27076e-19)
(18.5654 3.02301 0)
(15.4766 2.15895 1.0929e-18)
(15.478 2.16443 7.04127e-19)
(15.4901 2.16149 0)
(15.5021 2.15914 6.86744e-19)
(15.5207 2.15225 2.58161e-18)
(15.5487 2.14291 1.17368e-18)
(15.5893 2.13344 2.07544e-18)
(15.6439 2.12535 0)
(15.7159 2.12207 1.47885e-18)
(15.8067 2.12394 -1.23906e-18)
(15.9224 2.13242 1.03286e-18)
(16.0669 2.15014 8.7628e-19)
(16.2443 2.17974 -1.3053e-20)
(16.4548 2.22433 1.70291e-20)
(16.6953 2.28368 -9.69879e-19)
(16.9595 2.35572 7.59008e-19)
(17.2371 2.43315 0)
(17.5169 2.51116 4.43653e-19)
(17.7877 2.5785 0)
(18.0379 2.63852 0)
(18.2636 2.6781 -3.24958e-19)
(18.4537 2.71322 -6.88029e-19)
(18.6192 2.73055 5.92411e-19)
(15.4766 2.15889 0)
(15.4781 2.1645 -3.0843e-23)
(15.49 2.16149 9.81379e-23)
(15.5019 2.15904 -6.86696e-19)
(15.5204 2.15186 -6.43001e-19)
(15.5483 2.14196 -1.17306e-18)
(15.5889 2.13154 -1.03976e-18)
(15.6436 2.12202 -1.00158e-21)
(15.7157 2.11675 -7.37855e-19)
(15.8069 2.11567 -1.7947e-23)
(15.9232 2.11967 8.27469e-22)
(16.0691 2.13061 0)
(16.2489 2.15022 1.30825e-20)
(16.4632 2.18083 -1.70583e-20)
(16.7089 2.22146 1.41865e-18)
(16.9793 2.26986 4.41741e-20)
(17.263 2.31898 0)
(17.5476 2.36506 1.21006e-19)
(17.8208 2.39876 -1.5347e-19)
(18.0703 2.425 0)
(18.2922 2.434 0)
(18.477 2.44048 4.4208e-19)
(18.6366 2.43572 -3.05093e-19)
(15.4765 2.15882 1.055e-18)
(15.4781 2.16455 7.36075e-19)
(15.49 2.16146 0)
(15.5018 2.15892 6.87156e-19)
(15.5202 2.15143 -6.50164e-19)
(15.548 2.14096 -1.18993e-18)
(15.5886 2.12961 1.05169e-18)
(15.6434 2.11869 -8.95337e-19)
(15.7157 2.11143 -7.40558e-19)
(15.8073 2.10739 1.86044e-18)
(15.9243 2.10684 -1.03458e-18)
(16.0713 2.11085 -8.72005e-19)
(16.2529 2.12026 -7.34009e-19)
(16.47 2.13657 0)
(16.7193 2.15812 -4.84887e-19)
(16.9933 2.18258 7.67398e-19)
(17.2796 2.20346 4.02157e-20)
(17.5646 2.21834 -4.92575e-19)
(17.8351 2.22013 0)
(18.0791 2.21525 0)
(18.2927 2.19703 0)
(18.4688 2.17878 -6.58283e-19)
(18.6197 2.15513 5.83696e-19)
(15.4764 2.15876 -1.05598e-18)
(15.4781 2.1646 7.54582e-21)
(15.4899 2.16143 0)
(15.5016 2.1588 -6.92325e-19)
(15.5199 2.151 -6.99572e-23)
(15.5477 2.13996 1.79017e-18)
(15.5883 2.12769 -2.10984e-18)
(15.6433 2.11538 2.69541e-18)
(15.7158 2.10614 -8.40995e-22)
(15.8077 2.09912 -6.18761e-19)
(15.9251 2.09398 -5.20415e-19)
(16.0729 2.09099 8.74368e-19)
(16.2558 2.09004 7.25579e-19)
(16.4745 2.09184 -6.01328e-19)
(16.7256 2.09411 8.54056e-21)
(17.0006 2.09463 -7.76684e-19)
(17.2863 2.08778 0)
(17.5677 2.0727 0)
(17.8317 2.04481 3.15886e-19)
(18.0664 2.01184 0)
(18.2687 1.96988 0)
(18.434 1.93074 1.05704e-19)
(18.5746 1.89128 2.79681e-19)
(15.4764 2.15872 0)
(15.4782 2.16466 -7.44843e-19)
(15.4899 2.1614 1.95703e-23)
(15.5015 2.15869 -3.29969e-21)
(15.5196 2.15059 -4.93075e-23)
(15.5474 2.13899 -1.2027e-18)
(15.5879 2.1258 1.05806e-18)
(15.643 2.1121 -1.80013e-18)
(15.7157 2.10088 -7.43178e-19)
(15.8078 2.09086 0)
(15.9254 2.08111 5.17914e-19)
(16.0736 2.07104 1.75917e-21)
(16.257 2.05966 3.50787e-22)
(16.4762 2.04685 5.98607e-19)
(16.7273 2.02984 0)
(17.001 2.0067 3.86338e-19)
(17.2829 1.973 -8.49543e-21)
(17.5576 1.92963 0)
(17.8117 1.87458 -3.15598e-19)
(18.0345 1.81672 0)
(18.2236 1.75442 0)
(18.3768 1.698 0)
(18.5063 1.64555 -4.36555e-21)
(15.4763 2.15869 0)
(15.4782 2.16472 3.76804e-19)
(15.4898 2.16139 -3.62183e-24)
(15.5013 2.15859 6.96614e-19)
(15.5194 2.1502 6.6744e-19)
(15.547 2.13805 1.20947e-18)
(15.5875 2.12393 0)
(15.6426 2.10885 -9.0275e-19)
(15.7153 2.09563 1.48542e-18)
(15.8076 2.08263 -1.87895e-23)
(15.9252 2.06824 5.16064e-19)
(16.0733 2.05109 -4.34243e-19)
(16.2565 2.02923 0)
(16.475 2.00182 0)
(16.7244 1.96571 4.80161e-19)
(16.9944 1.91945 -3.79463e-19)
(17.2699 1.86009 0)
(17.5349 1.7904 -4.20602e-19)
(17.7767 1.71088 -3.06039e-19)
(17.9856 1.63132 0)
(18.1603 1.55187 4.80512e-21)
(18.3009 1.4814 2.88621e-22)
(18.4188 1.41845 -1.44647e-19)
(15.4762 2.15868 4.21646e-24)
(15.4782 2.16479 -7.54712e-19)
(15.4897 2.16139 -1.02505e-23)
(15.5012 2.15851 0)
(15.5191 2.14983 2.94495e-21)
(15.5466 2.13714 -1.21456e-18)
(15.587 2.1221 -2.32923e-22)
(15.6422 2.10564 9.02856e-19)
(15.7149 2.09043 -7.4198e-19)
(15.8071 2.07443 6.17614e-19)
(15.9244 2.05542 -2.11925e-21)
(16.0721 2.03117 8.67084e-19)
(16.2544 1.99888 -7.22776e-19)
(16.471 1.95698 2.11433e-21)
(16.717 1.90212 -9.59592e-19)
(16.9811 1.83354 3.82778e-19)
(17.2477 1.74996 -1.78867e-20)
(17.5008 1.65613 4.3514e-19)
(17.7283 1.55488 3.04259e-19)
(17.9219 1.45667 0)
(18.0815 1.36296 1.42114e-19)
(18.2094 1.2812 0)
(18.3158 1.20985 -6.09522e-20)
(15.4762 2.15868 0)
(15.4782 2.16486 3.77895e-19)
(15.4896 2.1614 3.97237e-19)
(15.501 2.15844 3.84891e-23)
(15.5188 2.14948 -1.34461e-18)
(15.5462 2.13625 6.08665e-19)
(15.5865 2.1203 0)
(15.6417 2.10246 0)
(15.7143 2.08526 -4.17662e-22)
(15.8064 2.06628 -6.17189e-19)
(15.9232 2.04266 -2.45264e-21)
(16.0701 2.01135 -4.32091e-19)
(16.2507 1.96872 7.19768e-19)
(16.4643 1.91257 0)
(16.7053 1.83947 4.75441e-19)
(16.9615 1.74957 -3.71104e-19)
(17.217 1.64341 2.56422e-19)
(17.4561 1.52773 2.42418e-20)
(17.6678 1.40744 0)
(17.8454 1.29342 0)
(17.9899 1.18801 -7.08001e-20)
(18.1052 1.09725 -1.84563e-19)
(18.2003 1.01923 1.27534e-19)
(15.4761 2.15869 0)
(15.4782 2.16494 -1.5549e-23)
(15.4896 2.16142 -3.97482e-19)
(15.5008 2.15839 3.5584e-19)
(15.5185 2.14915 6.73645e-19)
(15.5458 2.13539 1.32101e-22)
(15.586 2.11853 5.33762e-19)
(15.6411 2.09933 4.50355e-19)
(15.7136 2.08014 -7.36464e-19)
(15.8054 2.05819 0)
(15.9216 2.02999 -2.73976e-21)
(16.0672 1.99169 -4.26915e-19)
(16.2454 1.93887 0)
(16.455 1.86878 -1.03207e-20)
(16.6894 1.77813 4.7564e-19)
(16.9358 1.66809 0)
(17.1783 1.54114 -4.36368e-20)
(17.4019 1.40592 -5.39985e-21)
(17.5969 1.26915 3.46652e-19)
(17.758 1.14189 0)
(17.8875 1.027 0)
(17.9906 0.929124 9.27214e-20)
(18.0748 0.845826 -3.01554e-19)
(15.476 2.15872 -8.47005e-24)
(15.4782 2.16503 1.11798e-23)
(15.4895 2.16144 0)
(15.5007 2.15835 3.58403e-19)
(15.5182 2.14884 -3.44961e-22)
(15.5453 2.13457 2.6462e-22)
(15.5854 2.1168 -5.33693e-19)
(15.6404 2.09623 -4.50926e-19)
(15.7128 2.07507 7.36697e-19)
(15.8042 2.05017 -6.09172e-19)
(15.9195 2.01744 -5.10488e-19)
(16.0634 1.97224 4.30802e-19)
(16.2385 1.90944 3.45474e-19)
(16.4429 1.82585 2.75659e-19)
(16.6693 1.71846 -4.65287e-19)
(16.9043 1.5896 2.06031e-20)
(17.1323 1.44374 -3.04748e-19)
(17.3393 1.29127 -1.43744e-19)
(17.5169 1.14039 -1.45365e-19)
(17.6615 1.00216 9.82494e-20)
(17.7764 0.879703 -1.26765e-19)
(17.8677 0.776258 0)
(17.9415 0.688769 1.14597e-19)
(15.476 2.15876 0)
(15.4782 2.16512 3.75764e-19)
(15.4894 2.16147 3.99501e-19)
(15.5005 2.15832 -3.56609e-19)
(15.5179 2.14856 3.38953e-19)
(15.5449 2.13377 0)
(15.5848 2.11511 6.05888e-22)
(15.6397 2.09317 -7.96438e-22)
(15.7118 2.07004 3.66302e-19)
(15.8028 2.04223 9.14736e-19)
(15.9169 2.00501 -5.0026e-19)
(16.0588 1.95305 -2.98638e-21)
(16.2301 1.88054 -4.32492e-21)
(16.4283 1.78397 -2.85965e-19)
(16.6454 1.66077 0)
(16.8675 1.51453 3.4054e-19)
(17.0797 1.35167 -2.53197e-19)
(17.2691 1.18418 1.90449e-19)
(17.4291 1.0214 6.27534e-20)
(17.5572 0.874152 5.27196e-21)
(17.6581 0.745769 -1.21493e-19)
(17.738 0.638052 8.06581e-20)
(17.8017 0.547253 1.12099e-19)
(15.4759 2.15882 2.65419e-19)
(15.4782 2.16521 -1.12993e-21)
(15.4894 2.16152 -3.99756e-19)
(15.5004 2.1583 -3.58108e-19)
(15.5176 2.14829 -6.78427e-19)
(15.5444 2.133 -6.12094e-19)
(15.5842 2.11345 -6.05455e-22)
(15.6389 2.09016 7.95833e-22)
(15.7108 2.06507 -3.66415e-19)
(15.8011 2.03437 -3.04109e-19)
(15.9139 1.99275 1.00187e-18)
(16.0533 1.93417 -4.15963e-19)
(16.2201 1.85229 -3.46409e-19)
(16.4113 1.74334 2.76043e-19)
(16.6178 1.60536 -1.51398e-20)
(16.8258 1.44326 -2.98869e-19)
(17.0212 1.26534 2.57669e-19)
(17.1924 1.08495 -2.66123e-19)
(17.3345 0.912271 -6.85311e-20)
(17.4464 0.757753 0)
(17.5337 0.624784 1.20767e-19)
(17.6027 0.513913 -1.60163e-19)
(17.6569 0.420626 2.13169e-19)
(15.4759 2.15888 -2.65541e-19)
(15.4782 2.16531 -5.62061e-19)
(15.4893 2.16157 -4.01235e-19)
(15.5002 2.1583 3.59355e-19)
(15.5172 2.14805 3.39409e-19)
(15.5439 2.13226 6.12258e-19)
(15.5835 2.11182 5.34626e-19)
(15.638 2.08719 0)
(15.7096 2.06016 3.64892e-19)
(15.7992 2.02662 -3.01589e-19)
(15.9104 1.98067 -4.99333e-19)
(16.0469 1.91567 4.16105e-19)
(16.2087 1.82478 0)
(16.3918 1.70414 -2.57167e-19)
(16.5868 1.55251 1.8648e-19)
(16.7796 1.37613 -1.59997e-19)
(16.9573 1.18505 6.37483e-20)
(17.11 0.993775 9.39437e-20)
(17.2343 0.813049 -2.42827e-19)
(17.3303 0.652807 1.62184e-19)
(17.4045 0.516355 0)
(17.463 0.403228 -3.07888e-19)
(17.508 0.308148 4.39036e-19)
(15.4758 2.15896 0)
(15.4782 2.16541 1.87098e-19)
(15.4892 2.16162 4.01329e-19)
(15.5001 2.1583 -3.59568e-19)
(15.5169 2.14782 -5.66436e-23)
(15.5434 2.13155 2.65504e-22)
(15.5827 2.11024 -2.66865e-19)
(15.6371 2.08426 0)
(15.7082 2.05531 -3.64995e-19)
(15.7971 2.01896 1.31573e-21)
(15.9065 1.9688 0)
(16.0398 1.89759 -2.03329e-19)
(16.196 1.79812 0)
(16.3702 1.66652 1.8605e-20)
(16.5527 1.50244 -4.12655e-19)
(16.7294 1.3134 1.23406e-19)
(16.8888 1.11107 6.0994e-20)
(17.0227 0.910808 -2.39749e-19)
(17.1292 0.723688 1.18364e-19)
(17.2098 0.559095 1.61261e-19)
(17.2713 0.420125 -2.59956e-19)
(17.3198 0.305422 2.12585e-19)
(17.3559 0.209058 -7.83624e-19)
(15.4758 2.15905 -2.5936e-19)
(15.4783 2.16551 1.86717e-19)
(15.4892 2.16169 -2.0139e-19)
(15.4999 2.15832 -1.88386e-22)
(15.5166 2.14762 3.47068e-22)
(15.5428 2.13087 -6.22422e-22)
(15.582 2.10868 -2.67725e-19)
(15.6361 2.08138 1.79329e-21)
(15.7068 2.05052 -1.30752e-21)
(15.7948 2.01143 1.39438e-21)
(15.9022 1.95716 -2.43879e-19)
(16.0319 1.87997 1.96227e-19)
(16.1819 1.77238 9.3832e-21)
(16.3466 1.63064 -1.80789e-20)
(16.5157 1.45536 2.29159e-19)
(16.6756 1.2553 0)
(16.8164 1.04356 1.07653e-19)
(16.9313 0.836131 1.61291e-19)
(17.0203 0.644096 -1.12078e-19)
(17.0858 0.476348 2.97271e-19)
(17.1352 0.335756 -1.44808e-19)
(17.1737 0.220025 3.18451e-20)
(17.2015 0.122717 3.94212e-19)
(15.4757 2.15914 5.16208e-19)
(15.4783 2.16562 -1.86819e-19)
(15.4891 2.16176 -4.26636e-22)
(15.4997 2.15835 0)
(15.5162 2.14743 0)
(15.5423 2.13021 -3.08801e-19)
(15.5812 2.10717 -2.68858e-19)
(15.635 2.07855 0)
(15.7053 2.0458 -1.62661e-21)
(15.7922 2.00402 3.01246e-19)
(15.8974 1.94576 2.4832e-19)
(16.0233 1.86287 -5.68458e-21)
(16.1666 1.74767 -1.12695e-20)
(16.3211 1.59663 3.22203e-20)
(16.4762 1.41143 -2.2853e-20)
(16.6188 1.202 0)
(16.7406 0.982657 -1.55312e-19)
(16.8366 0.769776 5.09532e-21)
(16.9082 0.574183 -3.04476e-19)
(16.9591 0.404357 1.36777e-19)
(16.9966 0.262939 1.89402e-19)
(17.0256 0.146578 -3.05907e-19)
(17.0453 0.0485689 0)
(15.4757 2.15925 -5.11053e-19)
(15.4783 2.16573 2.19059e-23)
(15.489 2.16183 2.02062e-19)
(15.4996 2.15839 0)
(15.5159 2.14727 0)
(15.5417 2.12959 -7.24255e-22)
(15.5804 2.10569 5.38167e-19)
(15.6339 2.07576 0)
(15.7036 2.04116 1.8146e-19)
(15.7895 1.99674 0)
(15.8923 1.93464 0)
(16.014 1.84631 -6.94094e-21)
(16.1501 1.72403 9.05155e-21)
(16.2938 1.5646 1.04637e-19)
(16.4345 1.37081 2.21092e-20)
(16.5593 1.15364 -3.68102e-20)
(16.662 0.928436 1.50787e-19)
(16.7394 0.71173 0)
(16.7938 0.513882 9.97128e-20)
(16.8303 0.342982 0)
(16.8563 0.201355 4.15915e-20)
(16.8759 0.0846575 5.72023e-20)
(16.8878 -0.0137306 0)
(15.4757 2.15936 3.80202e-19)
(15.4783 2.16585 -9.40474e-20)
(15.489 2.16192 0)
(15.4994 2.15844 1.81813e-19)
(15.5156 2.14712 -1.72075e-19)
(15.5412 2.12899 3.10073e-19)
(15.5796 2.10425 -2.69776e-19)
(15.6328 2.07303 -2.26577e-19)
(15.7019 2.03659 -1.80203e-19)
(15.7865 1.9896 -2.61267e-21)
(15.8868 1.9238 3.41827e-21)
(16.004 1.83035 1.91337e-19)
(16.1326 1.70155 1.06748e-20)
(16.2651 1.53463 -1.51978e-19)
(16.3908 1.33358 2.13328e-20)
(16.4977 1.11031 0)
(16.5813 0.88093 0)
(16.6401 0.661952 0)
(16.6778 0.463118 0)
(16.7001 0.292056 -2.88431e-20)
(16.7149 0.150741 -1.84663e-19)
(16.7252 0.0341486 1.8125e-19)
(16.7293 -0.0641532 0)
(15.4756 2.15948 -1.25959e-19)
(15.4783 2.16596 1.88524e-19)
(15.4889 2.162 0)
(15.4993 2.1585 -1.81976e-19)
(15.5152 2.14698 3.45261e-19)
(15.5406 2.12842 0)
(15.5787 2.10285 0)
(15.6316 2.07034 2.2564e-19)
(15.7 2.0321 0)
(15.7833 1.98262 -1.43352e-19)
(15.881 1.91326 -1.20195e-19)
(15.9934 1.81501 -9.75819e-20)
(16.1141 1.68028 1.48043e-19)
(16.235 1.50681 0)
(16.3455 1.29982 0)
(16.4345 1.07205 3.29297e-20)
(16.4991 0.840136 -4.30092e-20)
(16.5396 0.620381 0)
(16.5607 0.421787 -3.9712e-20)
(16.5692 0.251417 2.9022e-20)
(16.5729 0.111058 1.45995e-19)
(16.5739 -0.00484871 -1.90576e-19)
(16.5703 -0.102682 0)
(15.4756 2.15961 1.65435e-23)
(15.4783 2.16608 -1.89388e-19)
(15.4889 2.16209 -6.02432e-23)
(15.4991 2.15857 -9.15015e-20)
(15.5149 2.14687 -1.73182e-19)
(15.54 2.12788 1.56544e-19)
(15.5778 2.10148 4.76546e-22)
(15.6303 2.06771 -1.13877e-19)
(15.6981 2.02769 1.82856e-19)
(15.78 1.97578 1.43895e-19)
(15.8748 1.90304 1.16863e-19)
(15.9822 1.80031 -9.395e-20)
(16.0948 1.66025 -1.48207e-19)
(16.2038 1.48118 -1.50472e-20)
(16.299 1.26958 1.97007e-20)
(16.3701 1.03888 3.09509e-20)
(16.4158 0.806016 -4.04622e-20)
(16.4384 0.586925 0)
(16.4433 0.389765 3.9933e-20)
(16.4382 0.22103 0)
(16.431 0.0824271 -1.7521e-20)
(16.4224 -0.0323712 0)
(16.4109 -0.129632 -6.49278e-21)
(15.4755 2.15975 6.1617e-20)
(15.4783 2.1662 9.48816e-20)
(15.4888 2.16219 1.0249e-19)
(15.499 2.15864 -1.32398e-22)
(15.5145 2.14678 -2.96619e-22)
(15.5394 2.12736 9.08131e-22)
(15.5769 2.10016 -1.36189e-19)
(15.629 2.06514 -7.30164e-22)
(15.696 2.02336 -1.80007e-19)
(15.7765 1.96911 -2.52794e-21)
(15.8683 1.89315 1.16957e-19)
(15.9705 1.78629 0)
(16.0747 1.6415 -9.69013e-21)
(16.1716 1.45779 1.26544e-20)
(16.2514 1.24285 3.85383e-20)
(16.3048 1.01076 0)
(16.3322 0.778492 0)
(16.3372 0.561473 -2.49922e-20)
(16.3263 0.366963 0)
(16.3079 0.200939 9.16412e-20)
(16.2895 0.0646934 -1.04591e-19)
(16.271 -0.0489096 8.90392e-21)
(16.2513 -0.145238 1.98682e-19)
(15.4755 2.15989 -1.22941e-19)
(15.4783 2.16632 -4.78651e-20)
(15.4887 2.16229 -1.53825e-19)
(15.4988 2.15873 9.23149e-20)
(15.5142 2.1467 8.73213e-20)
(15.5388 2.12688 -2.36525e-19)
(15.576 2.09887 1.36354e-19)
(15.6276 2.06261 1.11879e-19)
(15.6939 2.01912 2.86702e-21)
(15.7728 1.9626 -2.06046e-21)
(15.8615 1.8836 -1.13702e-19)
(15.9583 1.77295 -4.3994e-20)
(16.054 1.62405 5.85718e-20)
(16.1387 1.43664 6.27676e-20)
(16.2032 1.21963 -3.86258e-20)
(16.2393 0.987613 0)
(16.2487 0.757445 0)