/*--------------------------------*- C++ -*----------------------------------*\
  =========                 |
  \\      /  F ield         | OpenFOAM: The Open Source CFD Toolbox
   \\    /   O peration     | Website:  https://openfoam.org
    \\  /    A nd           | Version:  7
     \\/     M anipulation  |
\*---------------------------------------------------------------------------*/
FoamFile
{
    version     2.0;
    format      ascii;
    class       volScalarField;
    location    "79";
    object      yPlus;
}
// * * * * * * * * * * * * * * * * * * * * * * * * * * * * * * * * * * * * * //

dimensions      [0 0 0 0 0 0 0];

internalField   uniform 0;

boundaryField
{
    inlet
    {
        type            calculated;
        value           uniform 0;
    }
    outlet
    {
        type            calculated;
        value           uniform 0;
    }
    suction_side
    {
        type            calculated;
        value           nonuniform List<scalar> 
56
(
7.30636
7.34789
7.74949
7.77577
8.38305
8.41446
9.41173
9.46689
11.0899
11.1132
14.0606
16.1106
25.8094
36.1917
41.5096
39.2872
31.705
20.6009
29.3074
39.0575
40.3898
41.2218
42.4843
43.1817
43.2352
42.7444
41.9742
41.1254
40.192
39.213
38.2129
37.2352
36.3
35.4286
34.6173
33.8702
33.1592
32.4932
31.8322
31.2156
30.5826
29.9433
29.2542
28.4673
27.5613
26.4587
25.2058
23.6932
21.9298
20.2763
18.6636
16.9052
15.291
13.9012
13.7639
12.9193
)
;
    }
    pressure_side
    {
        type            calculated;
        value           nonuniform List<scalar> 
56
(
31.9271
32.2816
32.4808
32.9172
33.2696
33.7368
34.1889
34.6225
35.0251
35.3876
35.696
35.9623
36.1951
36.3992
36.5803
36.7459
36.8998
37.0435
37.1792
37.3111
37.4336
37.5416
37.601
37.5936
37.4895
37.3227
37.1789
37.1883
37.4248
37.9865
38.8432
39.8784
40.8961
41.3918
41.2361
40.3279
38.6849
36.1116
32.6736
28.2479
23.0472
17.3477
11.5421
7.2388
5.91822
4.68745
4.42484
4.64008
4.99951
5.28045
5.86784
6.04005
6.53271
6.6124
6.95874
7.00326
)
;
    }
    trailing_edge
    {
        type            calculated;
        value           nonuniform List<scalar> 2(106.688 75.6622);
    }
    defaultFaces
    {
        type            empty;
    }
}


// ************************************************************************* //
