/*--------------------------------*- C++ -*----------------------------------*\
  =========                 |
  \\      /  F ield         | OpenFOAM: The Open Source CFD Toolbox
   \\    /   O peration     | Website:  https://openfoam.org
    \\  /    A nd           | Version:  7
     \\/     M anipulation  |
\*---------------------------------------------------------------------------*/
FoamFile
{
    version     2.0;
    format      ascii;
    class       volScalarField;
    location    "85";
    object      k;
}
// * * * * * * * * * * * * * * * * * * * * * * * * * * * * * * * * * * * * * //

dimensions      [0 2 -2 0 0 0 0];

internalField   nonuniform List<scalar> 
17475
(
0.00763367
0.0124983
0.0125514
0.0125508
0.0125506
0.0125505
0.0125505
0.0125505
0.0125504
0.0125502
0.0125503
0.0125506
0.0125503
0.0125503
0.0125505
0.0125503
0.0125503
0.0125504
0.0125503
0.0125502
0.0125508
0.0125509
0.0125495
0.0125515
0.0125468
0.0125587
0.0125588
0.012559
0.0125591
0.0125588
0.0125587
0.0125586
0.0125586
0.0125585
0.0125585
0.0125584
0.0125583
0.0125581
0.0125585
0.0125628
0.0125695
0.012576
0.0125821
0.0125877
0.0125928
0.0125974
0.0126017
0.0126057
0.0126092
0.0126126
0.0126156
0.0126185
0.0126207
0.01261
0.0120188
0.000246134
0.00440843
0.00528566
0.00530443
0.00529498
0.00529065
0.0052886
0.00528731
0.00528658
0.00528604
0.00528573
0.00528544
0.00528523
0.00528508
0.0052849
0.00528479
0.00528466
0.00528454
0.00528441
0.00528433
0.00528425
0.00528415
0.00528514
0.00528287
0.0052868
0.00529071
0.0052936
0.00529373
0.00529375
0.0052933
0.00529312
0.00529308
0.00529307
0.00529306
0.00529306
0.00529302
0.005293
0.00529275
0.00529182
0.00529271
0.00529457
0.00529673
0.005299
0.00530119
0.00530335
0.00530542
0.00530751
0.00530966
0.00531206
0.00531491
0.00531875
0.00532409
0.00532134
0.00502947
0.00162956
3.09184e-05
0.00184645
0.0030771
0.00319508
0.00318632
0.0031774
0.0031724
0.00316941
0.00316759
0.00316629
0.0031654
0.00316474
0.00316425
0.00316381
0.00316345
0.00316314
0.00316284
0.00316257
0.00316232
0.00316207
0.00316181
0.0031621
0.00316168
0.00316324
0.00316427
0.0031657
0.00316759
0.00316841
0.00316841
0.00316825
0.00316805
0.00316811
0.00316822
0.00316835
0.00316849
0.00316864
0.00316878
0.00316849
0.00316815
0.00316845
0.00316904
0.00316983
0.00317079
0.00317188
0.00317312
0.00317454
0.00317624
0.00317845
0.00318147
0.00318596
0.00319295
0.00320137
0.00315738
0.00249663
0.000283272
9.86131e-06
0.000848658
0.00201173
0.00223582
0.00224418
0.00223408
0.00222726
0.00222297
0.00222013
0.00221816
0.00221679
0.00221575
0.00221491
0.00221422
0.00221364
0.00221312
0.00221264
0.00221219
0.00221176
0.00221134
0.00221121
0.00221082
0.0022115
0.00221222
0.00221296
0.00221351
0.00221419
0.00221494
0.00221519
0.00221521
0.00221504
0.00221517
0.00221541
0.00221568
0.00221596
0.00221628
0.00221657
0.00221647
0.00221649
0.00221693
0.00221745
0.0022181
0.00221891
0.00221993
0.00222118
0.00222275
0.00222479
0.00222761
0.00223168
0.00223785
0.00224699
0.00224978
0.00213815
0.00133296
8.90238e-05
4.46536e-06
0.000439524
0.00138531
0.00168586
0.00171892
0.00171191
0.00170437
0.00169926
0.00169575
0.00169329
0.0016915
0.00169014
0.00168904
0.00168811
0.00168731
0.0016866
0.00168596
0.00168532
0.0016847
0.0016843
0.00168373
0.00168389
0.00168408
0.00168429
0.00168456
0.0016849
0.0016852
0.0016855
0.00168584
0.00168596
0.00168593
0.00168616
0.00168651
0.00168691
0.00168733
0.00168781
0.00168818
0.00168823
0.0016887
0.0016893
0.00168995
0.00169071
0.00169164
0.00169278
0.00169423
0.00169609
0.00169852
0.0017019
0.00170675
0.00171385
0.00172248
0.00171121
0.00153722
0.000771232
4.18664e-05
2.44392e-06
0.000256114
0.000986448
0.00132561
0.00138427
0.00138325
0.00137596
0.00137048
0.00136655
0.00136372
0.00136165
0.00136004
0.00135873
0.00135761
0.00135662
0.00135573
0.00135492
0.0013541
0.00135344
0.00135268
0.00135245
0.00135227
0.00135209
0.00135197
0.00135191
0.00135197
0.00135206
0.00135221
0.00135242
0.00135271
0.00135281
0.00135315
0.00135362
0.00135413
0.0013547
0.00135535
0.00135576
0.00135615
0.00135687
0.00135764
0.00135845
0.00135936
0.00136043
0.00136173
0.00136339
0.00136553
0.00136828
0.00137202
0.00137729
0.00138441
0.00138989
0.00136146
0.00114397
0.000484846
2.43962e-05
1.51545e-06
0.000164674
0.000723754
0.0010697
0.00115113
0.00115758
0.0011517
0.0011462
0.00114206
0.00113899
0.00113674
0.00113497
0.00113347
0.00113219
0.00113106
0.00113001
0.00112905
0.00112816
0.0011272
0.00112657
0.00112609
0.00112565
0.0011252
0.00112482
0.00112451
0.00112437
0.00112424
0.00112427
0.00112447
0.00112485
0.00112514
0.00112553
0.00112612
0.00112679
0.0011275
0.0011283
0.00112885
0.00112955
0.00113045
0.00113138
0.00113235
0.0011334
0.00113461
0.00113606
0.00113789
0.00114027
0.00114323
0.00114707
0.00115233
0.00115895
0.00115983
0.00111449
0.000873957
0.000329239
1.60068e-05
1.02801e-06
0.000114481
0.000546854
0.000878826
0.000978728
0.000993055
0.00098935
0.000984133
0.000979998
0.000976878
0.000974494
0.000972598
0.000970926
0.000969463
0.000968241
0.000967051
0.000965958
0.000964824
0.000963909
0.00096306
0.000962333
0.000961667
0.000960974
0.000960326
0.000959798
0.000959506
0.000959224
0.000959147
0.000959308
0.000959749
0.00096021
0.000960691
0.000961406
0.000962256
0.000963167
0.000964062
0.000964823
0.000965804
0.000966902
0.00096798
0.000969103
0.000970279
0.00097163
0.000973218
0.000975173
0.000977641
0.000980582
0.000984438
0.000989627
0.000995038
0.000990563
0.000930532
0.000683684
0.000237304
1.12162e-05
7.44369e-07
8.42014e-05
0.000425037
0.000732282
0.000846009
0.000868004
0.000867063
0.000862397
0.000858362
0.000855212
0.000852821
0.000850859
0.00084901
0.00084736
0.000846093
0.000844735
0.00084335
0.000842249
0.000841058
0.000839904
0.00083891
0.000838001
0.000837011
0.000836087
0.000835434
0.000834978
0.000834497
0.000834306
0.000834455
0.000835028
0.000835645
0.000836274
0.000837134
0.000838204
0.000839297
0.000840313
0.000841385
0.000842609
0.000843823
0.000845038
0.000846346
0.000847595
0.000849003
0.000850688
0.000852655
0.000855132
0.000858147
0.000861916
0.000866772
0.00087045
0.000860472
0.000788096
0.00054622
0.000179652
8.36258e-06
5.65696e-07
6.46203e-05
0.00033914
0.000617904
0.000740904
0.000769982
0.000772171
0.000768459
0.000764445
0.000761226
0.00075895
0.000756944
0.00075501
0.000753218
0.000751923
0.00075039
0.000748893
0.000747568
0.000745952
0.000744422
0.000743163
0.000742075
0.000740801
0.000739567
0.00073868
0.000737951
0.000737195
0.00073692
0.00073716
0.000737879
0.000738663
0.000739468
0.000740465
0.000741772
0.000743031
0.000744317
0.000745757
0.000747126
0.000748317
0.000749685
0.00075118
0.000752464
0.00075386
0.000755505
0.000757457
0.000760099
0.000763185
0.000766644
0.000770922
0.000772834
0.000757762
0.000676487
0.000446927
0.000141651
6.53815e-06
4.45746e-07
5.12679e-05
0.000277124
0.000527611
0.000655726
0.000691258
0.000696556
0.00069401
0.00069006
0.00068671
0.000684549
0.000682768
0.000680978
0.000679003
0.00067758
0.000676114
0.000674427
0.000672914
0.000670935
0.000668932
0.000667306
0.000666005
0.000664524
0.000663104
0.000661936
0.000660884
0.000659737
0.00065937
0.000659709
0.000660491
0.000661399
0.000662421
0.000663703
0.000665336
0.000666674
0.000668384
0.00066996
0.000671374
0.000672575
0.000674058
0.000675555
0.000676875
0.000678212
0.000679752
0.00068201
0.000684802
0.000687953
0.000691041
0.000694616
0.000694483
0.000674924
0.000587414
0.000373334
0.000115169
5.29135e-06
3.61663e-07
4.18034e-05
0.000231307
0.000455703
0.000585467
0.000626919
0.00063494
0.00063345
0.00062968
0.000626403
0.000624511
0.000623149
0.000621421
0.0006192
0.000617663
0.00061619
0.00061421
0.00061253
0.000610201
0.000607905
0.000606128
0.00060442
0.000602618
0.000601089
0.000599805
0.000598405
0.000597009
0.000596481
0.000596708
0.000597627
0.000598689
0.000600016
0.000601584
0.000603474
0.00060506
0.000607013
0.000608847
0.000610224
0.000611339
0.000612955
0.000614563
0.000615732
0.000616774
0.000618543
0.000621275
0.000624223
0.00062742
0.000630005
0.00063256
0.000630635
0.000606963
0.000515429
0.000317744
9.6026e-05
4.40569e-06
3.00752e-07
3.49047e-05
0.000196699
0.000397932
0.000526612
0.000573322
0.000583686
0.000583541
0.000579803
0.000576226
0.000574756
0.000574326
0.000572533
0.000570202
0.00056863
0.000566826
0.000564638
0.000562816
0.000560289
0.000558026
0.000556211
0.000553914
0.000551546
0.000550335
0.000549397
0.000547313
0.000545547
0.000545228
0.000545718
0.000546456
0.00054745
0.000549205
0.000550973
0.000552939
0.000554853
0.000556901
0.000558994
0.000560484
0.000561475
0.000562487
0.000564089
0.000565432
0.000566697
0.000568383
0.000571101
0.000574691
0.000577805
0.000579783
0.000581569
0.000577978
0.00055044
0.0004565
0.000274764
8.17156e-05
3.75657e-06
2.54879e-07
2.96788e-05
0.000169951
0.000351041
0.000477334
0.000527501
0.000539811
0.00054083
0.000537307
0.000534461
0.000533205
0.000532764
0.000531103
0.000528952
0.000527301
0.000525094
0.000522785
0.000520477
0.000517838
0.000515333
0.000513225
0.000510895
0.000508573
0.000507402
0.000506904
0.000504994
0.000502866
0.000501983
0.000502377
0.000503454
0.000504969
0.000506577
0.00050837
0.000510309
0.000512282
0.000514364
0.000516502
0.00051793
0.000519094
0.000520343
0.000521837
0.000523325
0.000524673
0.000526103
0.000528754
0.000532635
0.000535348
0.000537237
0.000538064
0.000532688
0.000502142
0.000407526
0.000240382
7.04348e-05
3.22805e-06
2.19385e-07
2.56131e-05
0.000148765
0.000312373
0.000432979
0.000485678
0.000500206
0.000501932
0.000499041
0.000496317
0.000495376
0.000495008
0.000493476
0.000491491
0.00048968
0.000487422
0.000484954
0.000482368
0.000479613
0.000477044
0.000474745
0.00047265
0.000470926
0.000470316
0.000471254
0.000471181
0.000469374
0.000468625
0.000468751
0.000469431
0.000470583
0.000470061
0.000470935
0.000472645
0.000474261
0.000476219
0.000478222
0.000479876
0.000481353
0.000482637
0.000484111
0.000485645
0.000487035
0.000488504
0.000490932
0.00049446
0.000497054
0.000498695
0.000498819
0.00049159
0.000458563
0.000365882
0.000212858
6.15495e-05
2.80351e-06
1.91307e-07
2.24007e-05
0.000131596
0.000279847
0.000393772
0.000447888
0.000464127
0.000466633
0.000464304
0.000461942
0.000461147
0.000460722
0.000459284
0.000457408
0.000455517
0.000453318
0.000450841
0.000448082
0.000445338
0.000442941
0.000440786
0.000439677
0.000439864
0.000441418
0.000447234
0.000460215
0.00046869
0.00047316
0.000472012
0.0004653
0.000454067
0.000441967
0.000440957
0.000440193
0.000440788
0.000442367
0.000444061
0.000445731
0.000447325
0.000448613
0.000449944
0.00045148
0.000452898
0.000454282
0.000456491
0.000459715
0.00046219
0.000463553
0.000462936
0.000454225
0.000419254
0.000329594
0.000190043
5.42621e-05
2.45777e-06
1.668e-07
1.97063e-05
0.000117271
0.00025185
0.000358853
0.000413429
0.000431133
0.000434401
0.000432609
0.000430598
0.000429882
0.000429369
0.000428007
0.000426242
0.000424351
0.000422294
0.000419881
0.000417046
0.000414488
0.000412541
0.000411348
0.000412338
0.000416331
0.000432699
0.000467976
0.000478303
0.000438367
0.000396349
0.000398
0.000471094
0.000483428
0.000448088
0.000421747
0.000414015
0.000412105
0.000412319
0.000413466
0.00041489
0.000416513
0.000417791
0.000418866
0.000420298
0.000421698
0.000423063
0.000425083
0.000427989
0.000430313
0.000431469
0.000430221
0.000420246
0.000384075
0.000298395
0.000171027
4.82768e-05
2.17524e-06
1.30639e-07
1.69604e-05
0.000103857
0.000226858
0.000327002
0.000381732
0.000400783
0.000404824
0.000403528
0.000401806
0.00040112
0.000400528
0.000399224
0.000397594
0.000395789
0.000393939
0.00039161
0.000388843
0.000386624
0.000385219
0.000385463
0.000390466
0.000408039
0.000439001
0.000374853
0.000120632
2.20937e-06
1.22458e-05
0.000315147
0.000435324
0.000430691
0.000396168
0.000387342
0.000385519
0.000385772
0.000386878
0.000388478
0.000389695
0.000390603
0.000391907
0.000393191
0.000394485
0.000396312
0.00039891
0.000401068
0.000402007
0.000400191
0.000389169
0.000352222
0.000271113
0.000154611
4.31074e-05
1.93189e-06
4.82025e-08
1.19814e-05
8.79701e-05
0.000201614
0.000295867
0.000351849
0.000372555
0.000377511
0.000376729
0.000375221
0.000374528
0.000373865
0.000372619
0.000371148
0.000369515
0.000367877
0.000365507
0.000362875
0.000360971
0.000360309
0.00036253
0.000374593
0.000398872
0.000329079
8.99036e-05
4.05393e-07
0.000194499
0.000403114
0.000386546
0.000366124
0.000361181
0.000360582
0.000361213
0.000362656
0.000363862
0.000364551
0.000365711
0.000366859
0.000368037
0.000369666
0.000371989
0.000374001
0.000374771
0.000372496
0.000360684
0.00032316
0.000247094
0.000140379
3.81329e-05
1.59323e-06
6.43746e-08
1.26267e-05
8.16386e-05
0.000184379
0.000271607
0.000323779
0.000344925
0.000350512
0.000350239
0.00034884
0.00034785
0.000347143
0.000346049
0.000344458
0.000342951
0.000341137
0.000338959
0.000336702
0.000334897
0.00033482
0.000339443
0.000356523
0.000345624
0.000153084
1.03624e-05
5.23675e-05
0.000287166
0.000362431
0.000345059
0.000336275
0.000334574
0.000335352
0.00033657
0.000337734
0.000338393
0.000339391
0.000340553
0.000341682
0.000343202
0.000345296
0.000347153
0.000347749
0.00034501
0.000332362
0.000296304
0.000224913
0.000127846
3.61355e-05
1.75732e-06
9.18352e-08
1.23002e-05
7.70279e-05
0.000170603
0.000249509
0.000298228
0.000318989
0.000324736
0.000324569
0.000323326
0.000322481
0.000321577
0.000320602
0.000319196
0.000317655
0.000315812
0.000313944
0.000311909
0.000310152
0.000310427
0.000316648
0.000324467
0.000263549
7.78032e-05
5.00009e-06
8.99453e-08
3.88461e-07
2.84589e-05
0.000190287
0.000316772
0.000321895
0.000312139
0.000309722
0.000310437
0.000311309
0.00031234
0.000312929
0.000313993
0.00031511
0.000316278
0.000317779
0.00031972
0.000321577
0.000322083
0.00031905
0.000305996
0.000270783
0.000204767
0.000116282
3.25856e-05
1.4813e-06
9.25267e-08
1.11793e-05
7.02625e-05
0.000155741
0.000227848
0.000273924
0.000294622
0.000300787
0.000300886
0.000299804
0.000299036
0.000298005
0.00029701
0.000295759
0.000294281
0.000292472
0.000290745
0.000289039
0.000287383
0.000287877
0.000293897
0.000288553
0.000200099
5.3081e-05
7.20626e-06
1.20398e-06
5.43215e-07
6.1521e-07
6.03404e-07
6.16601e-07
2.72429e-06
2.57101e-05
0.000136435
0.000266745
0.000294549
0.000288967
0.000286394
0.000287218
0.000287949
0.00028884
0.000289403
0.00029052
0.000291733
0.00029295
0.000294453
0.000296336
0.000298073
0.000298382
0.000295037
0.000281686
0.000247561
0.000186526
0.000105815
2.92735e-05
1.30422e-06
8.45648e-08
1.00748e-05
6.36222e-05
0.000141857
0.000207902
0.000251487
0.000272146
0.000278712
0.000279154
0.000278177
0.000277383
0.000276412
0.000275393
0.000274177
0.00027269
0.000270907
0.000269399
0.000267937
0.000266439
0.000266956
0.00027086
0.000254426
0.000160231
4.54368e-05
8.47907e-06
3.4012e-06
4.4564e-06
5.61699e-06
5.19508e-06
4.02367e-06
7.58336e-06
2.85028e-05
0.000108859
0.000224217
0.000266821
0.000267046
0.000264878
0.000265721
0.000266557
0.000267376
0.000267876
0.000268906
0.000270163
0.000271517
0.000273048
0.000274882
0.000276468
0.000276582
0.000272942
0.000259352
0.000226436
0.000170098
9.62891e-05
2.62853e-05
1.16031e-06
7.60322e-08
9.05637e-06
5.75827e-05
0.000129217
0.000189771
0.000230872
0.000251361
0.0002583
0.000259102
0.000258216
0.000257402
0.000256513
0.000255502
0.000254279
0.000252754
0.000251007
0.000249636
0.000248361
0.000246985
0.000247367
0.000248897
0.000225964
0.000137997
4.47058e-05
9.3599e-06
5.30891e-06
6.99005e-06
9.59412e-06
1.14013e-05
1.16162e-05
1.66319e-05
3.44093e-05
9.50934e-05
0.000190369
0.000240484
0.000246363
0.00024521
0.000246029
0.000246947
0.000247702
0.000248177
0.000249149
0.000250435
0.000251824
0.000253399
0.000255197
0.000256608
0.000256462
0.000252496
0.000238799
0.000207247
0.000155289
8.76513e-05
2.36354e-05
1.03726e-06
6.813e-08
8.12886e-06
5.21204e-05
0.000117754
0.000173297
0.000211907
0.000232113
0.000239342
0.000240492
0.000239736
0.000238923
0.0002381
0.000237082
0.000235858
0.000234293
0.00023259
0.000231286
0.000230148
0.000228839
0.000228907
0.000228385
0.000204143
0.000127386
5.16192e-05
1.42299e-05
6.84112e-06
7.97222e-06
1.17439e-05
1.79677e-05
2.35055e-05
2.94956e-05
4.24675e-05
8.9936e-05
0.000165389
0.000216534
0.000227142
0.000227182
0.000227994
0.000228929
0.000229613
0.000230039
0.000230932
0.00023228
0.000233698
0.000235319
0.000237058
0.000238277
0.000237875
0.000233586
0.000219828
0.000189677
0.000141764
7.96766e-05
2.12108e-05
9.26089e-07
6.09503e-08
7.28708e-06
4.71296e-05
0.000107237
0.000158192
0.000194318
0.000214053
0.000221578
0.000223131
0.000222543
0.000221762
0.000220943
0.000219899
0.000218693
0.00021712
0.000215409
0.00021417
0.000213151
0.00021186
0.000211486
0.000209455
0.000186514
0.0001223
5.96617e-05
2.44759e-05
1.03409e-05
9.23812e-06
1.15052e-05
1.93547e-05
3.26243e-05
4.37565e-05
5.62253e-05
9.01809e-05
0.00014804
0.000196182
0.00020943
0.000210533
0.000211367
0.000212195
0.000212881
0.000213259
0.000214045
0.000215528
0.000216882
0.000218573
0.000220215
0.000221253
0.000220589
0.000216013
0.000202277
0.000173603
0.00012945
7.23793e-05
1.9017e-05
8.20601e-07
5.44793e-08
6.52636e-06
4.25777e-05
9.75977e-05
0.000144321
0.000177969
0.000196676
0.000204831
0.000206814
0.00020634
0.000204999
0.000204682
0.000203656
0.000202591
0.00020098
0.00019903
0.000197969
0.000197201
0.000195904
0.000195049
0.000191941
0.000170875
0.000118906
6.77988e-05
3.61664e-05
1.91238e-05
1.25923e-05
1.23694e-05
1.80224e-05
3.7419e-05
6.22123e-05
8.5349e-05
0.000100764
0.0001382
0.000178887
0.000193167
0.000195001
0.000195863
0.000196537
0.000197224
0.000197595
0.000198338
0.00019953
0.000200952
0.000202917
0.000204465
0.000205383
0.000204294
0.000199412
0.000185839
0.00015872
0.00011804
6.55796e-05
1.69667e-05
7.21536e-07
4.86731e-08
5.84243e-06
3.84166e-05
8.87267e-05
0.000131498
0.000162409
0.000180945
0.000189173
0.000191233
0.00019073
0.000189698
0.000189305
0.000188382
0.00018725
0.000185886
0.000183821
0.000182705
0.000182153
0.000180885
0.000179647
0.000175639
0.000156425
0.000115495
7.56491e-05
4.92592e-05
3.20469e-05
2.04577e-05
1.63312e-05
1.6485e-05
3.16115e-05
7.61895e-05
0.000131263
0.000125369
0.000134194
0.000164529
0.000177943
0.00018033
0.000181166
0.000181504
0.0001821
0.000182893
0.000183631
0.000184794
0.000186208
0.000188241
0.000189569
0.000190118
0.000188871
0.000183785
0.000170468
0.000144807
0.000107558
5.93191e-05
1.51261e-05
6.3531e-07
4.34864e-08
5.22869e-06
3.46527e-05
8.05189e-05
0.000119576
0.000148634
0.000166491
0.000174561
0.000176855
0.000176353
0.000175781
0.000174968
0.000174222
0.000173212
0.000171752
0.000169999
0.000168748
0.000168197
0.000167117
0.000165417
0.000161134
0.000143629
0.000112143
8.56258e-05
6.80139e-05
5.05812e-05
3.46003e-05
2.47823e-05
1.924e-05
2.16516e-05
6.03157e-05
0.000166852
0.00016915
0.000132048
0.000152205
0.000164346
0.000166738
0.000167543
0.000168066
0.000168693
0.000169206
0.000170087
0.000171356
0.000172678
0.000174431
0.000175648
0.000175857
0.000174483
0.000169381
0.000156194
0.000132034
9.78262e-05
5.36445e-05
1.34868e-05
5.60312e-07
3.8891e-08
4.68397e-06
3.12885e-05
7.31091e-05
0.000108773
0.000135771
0.000153028
0.000161275
0.000163734
0.000163645
0.000162621
0.000162033
0.000161259
0.000160317
0.00015897
0.000157542
0.000156443
0.000155772
0.000154574
0.00015292
0.000148195
0.00013267
0.000112543
0.000104425
9.81535e-05
7.77726e-05
5.54639e-05
4.03049e-05
2.88886e-05
2.22949e-05
3.60032e-05
0.000147794
0.000202921
0.000128624
0.000141729
0.000151774
0.000154415
0.000155123
0.000155794
0.000156048
0.000156801
0.000157733
0.000159106
0.000160655
0.000162054
0.000163164
0.000162948
0.000161531
0.000156449
0.000143349
0.000120595
8.91098e-05
4.85165e-05
1.20371e-05
4.95312e-07
3.48513e-08
4.20346e-06
2.83018e-05
6.67583e-05
9.95398e-05
0.000124347
0.000140891
0.000149284
0.00015207
0.000152025
0.000151179
0.000150458
0.000149757
0.000148694
0.000147465
0.000146082
0.000145038
0.000144319
0.000143151
0.000141498
0.000136735
0.000123935
0.000116536
0.000141037
0.00014363
0.000114485
8.3927e-05
6.14911e-05
4.40066e-05
3.10928e-05
3.44126e-05
0.000127206
0.000200311
0.000122499
0.000131795
0.000140636
0.000143128
0.000143761
0.000144522
0.000144956
0.000145608
0.00014654
0.000147954
0.000149499
0.000150894
0.000151689
0.000151584
0.000149952
0.000144634
0.000131921
0.000110515
8.14994e-05
4.39509e-05
1.0764e-05
4.38976e-07
3.1312e-08
3.78235e-06
2.56752e-05
6.12366e-05
9.14528e-05
0.000114403
0.000130195
0.000138419
0.000141341
0.000141583
0.000140882
0.000140128
0.000139455
0.000138385
0.000137197
0.000135711
0.00013457
0.000133706
0.000132783
0.000131106
0.000126601
0.000117067
0.000126348
0.000187051
0.000195011
0.000160419
0.000116698
8.6692e-05
5.93466e-05
4.15094e-05
4.36007e-05
0.000136127
0.000152939
0.00011486
0.000122881
0.000130262
0.000132639
0.000133544
0.000134156
0.000134637
0.000135286
0.000136273
0.000137701
0.000139225
0.000140553
0.000141277
0.000141151
0.000139371
0.000133782
0.000121402
0.000101434
7.4813e-05
3.99773e-05
9.65277e-06
3.90508e-07
2.82436e-08
3.41661e-06
2.336e-05
5.62482e-05
8.41736e-05
0.000105403
0.000120398
0.000128526
0.000131565
0.000131967
0.000131389
0.000130602
0.000129912
0.000128901
0.000127739
0.000126271
0.000125017
0.000124223
0.000123352
0.00012172
0.000117612
0.000112359
0.000142079
0.000247921
0.000247741
0.000192655
0.000136734
9.98931e-05
6.9849e-05
5.1553e-05
7.18427e-05
0.000160465
0.000155622
0.000107378
0.000114717
0.000121007
0.000123151
0.000124109
0.000124657
0.000125167
0.000125827
0.000126844
0.000128272
0.000129767
0.000131031
0.00013171
0.000131484
0.000129553
0.000123871
0.000111867
9.32825e-05
6.87983e-05
3.64676e-05
8.68807e-06
3.48899e-07
2.55737e-08
3.09805e-06
2.13149e-05
5.17795e-05
7.75974e-05
9.71954e-05
0.0001114
0.000119428
0.000122575
0.000123103
0.000122623
0.000121845
0.000121133
0.000120184
0.000119073
0.000117668
0.000116369
0.000115573
0.000114795
0.000113248
0.000109602
0.000108125
0.000135201
0.000247005
0.000263837
0.000213799
0.000152134
0.000102144
7.22352e-05
6.97232e-05
0.000129403
0.000184707
0.000134671
0.000101341
0.000107285
0.000112509
0.000114542
0.000115429
0.000115963
0.000116533
0.000117211
0.00011821
0.000119581
0.000121035
0.000122237
0.000122855
0.000122548
0.00012049
0.000114757
0.000103191
8.59816e-05
6.34209e-05
3.33431e-05
7.84994e-06
3.13169e-07
2.32423e-08
2.81899e-06
1.94974e-05
4.77583e-05
7.16649e-05
8.9729e-05
0.000103137
0.000111018
0.000114256
0.000114899
0.000114499
0.000113747
0.000113023
0.000112134
0.000111085
0.000109786
0.000108551
0.000107738
0.00010696
0.000105466
0.000102333
0.000104461
0.000147164
0.000265441
0.000261586
0.000190864
0.000127497
9.23349e-05
7.86084e-05
0.000108129
0.000181098
0.000190777
0.000117917
9.70919e-05
0.000100528
0.000104722
0.000106642
0.000107491
0.000108035
0.00010862
0.000109302
0.000110265
0.000111571
0.000112955
0.000114091
0.000114641
0.000114264
0.000112101
0.000106358
9.52921e-05
7.94068e-05
5.86094e-05
3.05781e-05
7.12158e-06
2.82503e-07
2.12001e-08
2.57384e-06
1.78822e-05
4.41477e-05
6.63144e-05
8.29309e-05
9.55312e-05
0.000103221
0.000106527
0.000107276
0.000106944
0.000106223
0.000105503
0.000104671
0.000103693
0.000102508
0.000101362
0.000100564
9.97874e-05
9.8329e-05
9.57302e-05
0.000100479
0.000153306
0.000273279
0.000233522
0.000160658
0.000104567
8.39743e-05
9.38744e-05
0.000147215
0.000201115
0.000176262
0.000110704
9.30211e-05
9.44273e-05
9.75549e-05
9.93497e-05
0.000100177
0.000100729
0.000101315
0.000102001
0.000102931
0.000104161
0.000105461
0.000106527
0.00010701
0.000106573
0.000104328
9.86192e-05
8.8098e-05
7.34829e-05
5.43046e-05
2.81367e-05
6.4896e-06
2.56136e-07
1.94109e-08
2.3585e-06
1.64492e-05
4.09036e-05
6.14833e-05
7.67399e-05
8.85245e-05
9.59788e-05
9.93307e-05
0.000100173
9.99038e-05
9.92182e-05
9.85165e-05
9.7742e-05
9.68414e-05
9.57701e-05
9.47162e-05
9.39423e-05
9.31869e-05
9.18023e-05
8.96715e-05
9.6429e-05
0.000164191
0.000261448
0.000203766
0.000125811
8.55139e-05
8.19531e-05
0.000107183
0.000160995
0.000203719
0.00016382
0.000105953
8.82826e-05
8.90255e-05
9.09395e-05
9.26026e-05
9.34183e-05
9.39739e-05
9.45588e-05
9.52433e-05
9.61472e-05
9.72949e-05
9.8497e-05
9.94912e-05
9.99189e-05
9.94294e-05
9.7127e-05
9.14943e-05
8.15475e-05
6.81417e-05
5.04422e-05
2.59742e-05
5.94162e-06
2.33498e-07
1.78313e-08
2.1683e-06
1.51758e-05
3.79903e-05
5.71221e-05
7.11045e-05
8.20757e-05
8.92589e-05
9.26293e-05
9.35529e-05
9.33452e-05
9.27e-05
9.20234e-05
9.13038e-05
9.04814e-05
8.95185e-05
8.85571e-05
8.78146e-05
8.70805e-05
8.57769e-05
8.41213e-05
9.28371e-05
0.000171179
0.000241709
0.000168311
9.94259e-05
7.29301e-05
8.4206e-05
0.000120215
0.000171616
0.000197595
0.00015394
0.000102785
8.65631e-05
8.40697e-05
8.48363e-05
8.63626e-05
8.7167e-05
8.77222e-05
8.83028e-05
8.89803e-05
8.9854e-05
9.09294e-05
9.20299e-05
9.29449e-05
9.33279e-05
9.28018e-05
9.04617e-05
8.49423e-05
7.55903e-05
6.33289e-05
4.698e-05
2.40582e-05
5.46406e-06
2.13914e-07
1.64363e-08
2.00039e-06
1.4042e-05
3.53674e-05
5.3189e-05
6.59866e-05
7.61537e-05
8.30363e-05
8.63991e-05
8.73901e-05
8.72429e-05
8.6643e-05
8.59929e-05
8.53192e-05
8.45692e-05
8.37067e-05
8.2835e-05
8.21297e-05
8.14202e-05
8.02039e-05
7.89945e-05
8.88118e-05
0.000157882
0.00020408
0.000140843
8.23292e-05
6.87321e-05
8.81672e-05
0.000120436
0.00016215
0.000190989
0.000165267
0.000103815
8.30347e-05
7.94933e-05
7.92281e-05
8.05929e-05
8.13828e-05
8.19372e-05
8.25093e-05
8.31751e-05
8.4013e-05
8.5017e-05
8.60325e-05
8.68626e-05
8.72037e-05
8.66512e-05
8.42996e-05
7.89289e-05
7.01777e-05
5.89911e-05
4.3874e-05
2.23603e-05
5.04705e-06
1.96964e-07
1.51931e-08
1.85045e-06
1.30325e-05
3.30093e-05
4.96429e-05
6.13437e-05
7.07286e-05
7.72894e-05
8.06204e-05
8.16642e-05
8.15736e-05
8.10209e-05
8.03971e-05
7.97578e-05
7.90693e-05
7.82973e-05
7.75092e-05
7.68441e-05
7.61638e-05
7.50425e-05
7.42403e-05
8.37175e-05
0.00013475
0.000172112
0.000119955
7.52799e-05
6.84263e-05
8.43344e-05
0.000109063
0.000144761
0.000179903
0.000167283
0.000106866
8.11302e-05
7.53016e-05
7.40768e-05
7.52572e-05
7.60285e-05
7.65796e-05
7.71444e-05
7.77964e-05
7.85937e-05
7.95266e-05
8.04657e-05
8.12179e-05
8.15153e-05
8.0945e-05
7.86e-05
7.3417e-05
6.52768e-05
5.50977e-05
4.11072e-05
2.08758e-05
4.69597e-06
1.83418e-07
1.40878e-08
1.71705e-06
1.2124e-05
3.08856e-05
4.64375e-05
5.71314e-05
6.57628e-05
7.19905e-05
7.52698e-05
7.63521e-05
7.63109e-05
7.58039e-05
7.52063e-05
7.45937e-05
7.39552e-05
7.32622e-05
7.25513e-05
7.19304e-05
7.12861e-05
7.02718e-05
6.98126e-05
7.8189e-05
0.000117254
0.000150425
0.000111153
7.23672e-05
6.84983e-05
7.73915e-05
9.5028e-05
0.00012571
0.000162884
0.000170122
0.000121237
8.61096e-05
7.14481e-05
6.93803e-05
7.03339e-05
7.10778e-05
7.16213e-05
7.21781e-05
7.28154e-05
7.35694e-05
7.44314e-05
7.52986e-05
7.5989e-05
7.62396e-05
7.56484e-05
7.33312e-05
6.8369e-05
6.08372e-05
5.15986e-05
3.8633e-05
1.957e-05
4.3939e-06
1.72387e-07
1.30978e-08
1.59757e-06
1.13097e-05
2.896e-05
4.3533e-05
5.33062e-05
6.12205e-05
6.71098e-05
7.03232e-05
7.1432e-05
7.14317e-05
7.09662e-05
7.03963e-05
6.98095e-05
6.92127e-05
6.8587e-05
6.79473e-05
6.73753e-05
6.67734e-05
6.58715e-05
6.57074e-05
7.23398e-05
0.000103463
0.000135698
0.000102603
7.16232e-05
6.49446e-05
6.95718e-05
8.24721e-05
0.000108499
0.000143385
0.000159426
0.00012442
8.45787e-05
6.77988e-05
6.50848e-05
6.58039e-05
6.651e-05
6.70396e-05
6.75856e-05
6.82052e-05
6.89166e-05
6.97101e-05
7.05079e-05
7.1142e-05
7.13496e-05
7.07379e-05
6.84678e-05
6.37464e-05
5.68079e-05
4.84399e-05
3.64031e-05
1.84005e-05
4.12668e-06
1.62649e-07
1.2215e-08
1.49053e-06
1.05762e-05
2.72074e-05
4.08913e-05
4.98268e-05
5.70661e-05
6.26182e-05
6.57549e-05
6.6881e-05
6.69133e-05
6.6484e-05
6.59445e-05
6.53878e-05
6.48291e-05
6.42592e-05
6.36834e-05
6.31622e-05
6.26076e-05
6.18286e-05
6.19394e-05
6.73602e-05
9.30445e-05
0.000127132
0.000107339
7.94129e-05
6.52051e-05
6.35502e-05
7.21965e-05
9.37463e-05
0.000124539
0.000144521
0.000124279
8.33446e-05
6.43296e-05
6.11522e-05
6.16457e-05
6.23037e-05
6.28125e-05
6.33451e-05
6.39459e-05
6.46133e-05
6.5342e-05
6.60725e-05
6.66537e-05
6.68268e-05
6.62004e-05
6.39816e-05
5.95115e-05
5.31496e-05
4.55858e-05
3.43874e-05
1.73492e-05
3.88896e-06
1.53952e-07
1.14174e-08
1.39331e-06
9.91058e-06
2.56066e-05
3.84807e-05
4.66584e-05
5.32692e-05
5.84897e-05
6.15425e-05
6.26803e-05
6.27394e-05
6.23416e-05
6.18344e-05
6.13127e-05
6.07906e-05
6.0265e-05
5.97438e-05
5.92726e-05
5.87699e-05
5.81239e-05
5.85528e-05
6.31863e-05
8.43794e-05
0.000118815
0.000110592
8.63209e-05
6.52186e-05
5.93497e-05
6.48385e-05
8.21654e-05
0.000109953
0.000130058
0.000115624
7.89113e-05
6.09987e-05
5.75595e-05
5.78416e-05
5.8442e-05
5.89243e-05
5.944e-05
6.00186e-05
6.06416e-05
6.13059e-05
6.19724e-05
6.25041e-05
6.26479e-05
6.20102e-05
5.98553e-05
5.56353e-05
4.98252e-05
4.30008e-05
3.25577e-05
1.63977e-05
3.67347e-06
1.46166e-07
1.06974e-08
1.30545e-06
9.30534e-06
2.41392e-05
3.62765e-05
4.37737e-05
4.98029e-05
5.47037e-05
5.7668e-05
5.88157e-05
5.89005e-05
5.85312e-05
5.80546e-05
5.75683e-05
5.70801e-05
5.65894e-05
5.61125e-05
5.56888e-05
5.52413e-05
5.47402e-05
5.55049e-05
5.92683e-05
7.83681e-05
0.000112066
0.000113607
9.83962e-05
6.7303e-05
5.62751e-05
5.92603e-05
7.35845e-05
9.74264e-05
0.000117534
0.000107232
7.46502e-05
5.78106e-05
5.42852e-05
5.43743e-05
5.49094e-05
5.53584e-05
5.5854e-05
5.64074e-05
5.69826e-05
5.75837e-05
5.81904e-05
5.86779e-05
5.87905e-05
5.81451e-05
5.60617e-05
5.20953e-05
4.6803e-05
4.06525e-05
3.08869e-05
1.55276e-05
3.47809e-06
1.39092e-07
1.00398e-08
1.22529e-06
8.75267e-06
2.27886e-05
3.42549e-05
4.11447e-05
4.66413e-05
5.12345e-05
5.411e-05
5.52699e-05
5.53825e-05
5.50405e-05
5.45897e-05
5.4134e-05
5.36755e-05
5.32129e-05
5.27711e-05
5.23908e-05
5.20012e-05
5.16505e-05
5.27704e-05
5.65335e-05
7.43517e-05
0.00011012
0.000122715
9.74314e-05
6.7942e-05
5.63137e-05
5.52496e-05
6.78714e-05
8.83202e-05
0.000107781
0.000100212
7.10678e-05
5.50188e-05
5.132e-05
5.1261e-05
5.17043e-05
5.21005e-05
5.25693e-05
5.30943e-05
5.36173e-05