/*--------------------------------*- C++ -*----------------------------------*\
  =========                 |
  \\      /  F ield         | OpenFOAM: The Open Source CFD Toolbox
   \\    /   O peration     | Website:  https://openfoam.org
    \\  /    A nd           | Version:  7
     \\/     M anipulation  |
\*---------------------------------------------------------------------------*/
FoamFile
{
    version     2.0;
    format      ascii;
    class       volScalarField;
    location    "85";
    object      nut;
}
// * * * * * * * * * * * * * * * * * * * * * * * * * * * * * * * * * * * * * //

dimensions      [0 2 -1 0 0 0 0];

internalField   nonuniform List<scalar> 
17475
(
3.12042e-05
0.00018885
0.000188081
0.000188028
0.000188026
0.000188026
0.000188026
0.000188025
0.000188025
0.000188025
0.000188025
0.000188025
0.000188025
0.000188025
0.000188025
0.000188025
0.000188025
0.000188025
0.000188025
0.000188025
0.000188025
0.000188025
0.000188024
0.000188025
0.000188023
0.000188026
0.000188026
0.000188026
0.000188026
0.000188026
0.000188026
0.000188026
0.000188026
0.000188026
0.000188026
0.000188026
0.000188026
0.000188026
0.000188026
0.000188027
0.000188029
0.000188031
0.000188032
0.000188034
0.000188035
0.000188037
0.000188038
0.000188039
0.00018804
0.000188041
0.000188041
0.000188043
0.000188053
0.000188285
0.000150675
9.21683e-07
0.000115391
0.000172096
0.000176596
0.000176758
0.000176762
0.000176759
0.000176757
0.000176755
0.000176753
0.000176752
0.000176751
0.00017675
0.000176749
0.000176748
0.000176748
0.000176747
0.000176746
0.000176745
0.000176743
0.000176742
0.000176741
0.000176743
0.000176736
0.000176744
0.000176746
0.00017675
0.00017675
0.000176749
0.000176748
0.000176747
0.000176746
0.000176746
0.000176746
0.000176746
0.000176746
0.000176746
0.000176745
0.000176743
0.000176742
0.000176742
0.000176742
0.000176743
0.000176744
0.000176746
0.000176747
0.000176749
0.000176751
0.000176754
0.000176758
0.000176757
0.000176695
0.000175357
0.000153948
1.68136e-05
1.20095e-07
5.9213e-05
0.000151135
0.000168228
0.000169906
0.000170015
0.000170018
0.000170013
0.000170007
0.000169999
0.000169995
0.000169993
0.00016999
0.000169988
0.000169987
0.000169985
0.000169983
0.000169981
0.00016998
0.000169977
0.000169975
0.000169976
0.000169976
0.000169981
0.000169982
0.000169983
0.000169989
0.000169992
0.000169992
0.000169991
0.00016999
0.00016999
0.000169991
0.000169994
0.000169994
0.000169994
0.000169996
0.000169994
0.000169992
0.000169991
0.000169991
0.000169987
0.000169985
0.000169986
0.00016999
0.000169992
0.000169994
0.000169999
0.000170005
0.000170011
0.000169974
0.000169341
0.000161171
0.000102865
3.04292e-06
3.85976e-08
3.04476e-05
0.000127826
0.000159093
0.000164768
0.000165345
0.000165405
0.000165404
0.00016539
0.000165376
0.000165371
0.000165365
0.00016536
0.000165352
0.00016535
0.000165346
0.000165341
0.000165338
0.000165335
0.000165328
0.000165325
0.000165325
0.000165331
0.000165334
0.000165336
0.000165337
0.000165339
0.000165344
0.000165344
0.00016534
0.000165337
0.000165338
0.000165342
0.000165348
0.000165349
0.00016535
0.000165353
0.00016535
0.000165348
0.00016535
0.000165352
0.000165345
0.000165342
0.000165349
0.000165359
0.000165366
0.000165372
0.00016538
0.000165387
0.000165377
0.000165153
0.00016251
0.000144069
6.41347e-05
1.07907e-06
1.75496e-08
1.7062e-05
0.000104923
0.000148986
0.000159913
0.000161715
0.000161941
0.000161963
0.000161946
0.00016193
0.000161926
0.000161919
0.00016191
0.000161895
0.000161892
0.000161887
0.000161879
0.000161869
0.000161864
0.000161857
0.000161849
0.000161851
0.00016185
0.000161846
0.000161858
0.000161861
0.000161854
0.000161852
0.000161846
0.000161835
0.000161834
0.000161838
0.00016185
0.000161857
0.000161858
0.000161864
0.000161865
0.000161857
0.000161859
0.000161864
0.000161868
0.000161865
0.000161868
0.000161881
0.000161898
0.000161915
0.000161922
0.000161931
0.000161927
0.000161847
0.000161052
0.000154833
0.000126099
4.19119e-05
5.49848e-07
9.62112e-09
1.05189e-05
8.50138e-05
0.000138708
0.000154744
0.000158565
0.000159157
0.000159246
0.000159227
0.000159205
0.000159212
0.000159211
0.000159203
0.000159182
0.000159175
0.000159165
0.000159161
0.000159135
0.000159128
0.000159125
0.000159117
0.000159108
0.00015909
0.000159082
0.00015911
0.000159112
0.000159086
0.000159055
0.000159031
0.000159028
0.000159044
0.000159059
0.000159079
0.000159084
0.000159087
0.000159112
0.000159108
0.000159091
0.000159099
0.000159109
0.000159111
0.000159114
0.00015912
0.000159133
0.000159156
0.000159193
0.0001592
0.000159203
0.000159168
0.000158903
0.000156973
0.000146656
0.000109018
2.90747e-05
3.32494e-07
5.97105e-09
7.04361e-06
6.89365e-05
0.000128468
0.000149317
0.000155597
0.000156868
0.000157099
0.000157059
0.000157004
0.000157035
0.000157052
0.000157033
0.000157019
0.00015702
0.00015699
0.000157004
0.000156976
0.00015694
0.000156905
0.000156894
0.000156892
0.000156843
0.000156848
0.000156867
0.000156853
0.000156801
0.000156727
0.000156698
0.000156736
0.000156777
0.000156811
0.000156836
0.00015684
0.000156832
0.000156903
0.000156921
0.000156881
0.000156882
0.000156891
0.000156895
0.000156885
0.000156865
0.000156875
0.000156903
0.000157008
0.000157025
0.000156976
0.000156875
0.000156262
0.000152663
0.000138513
9.39725e-05
2.12685e-05
2.22368e-07
4.05215e-09
5.04221e-06
5.64002e-05
0.000118607
0.000144184
0.000152971
0.000155252
0.000155733
0.000155688
0.000155648
0.000155715
0.000155749
0.000155648
0.000155577
0.000155623
0.000155564
0.000155589
0.000155528
0.000155409
0.000155275
0.00015524
0.000155282
0.000155185
0.000155156
0.000155107
0.000155082
0.000154983
0.000154858
0.000154862
0.00015501
0.000155057
0.00015506
0.000155097
0.000155127
0.000155118
0.000155229
0.000155265
0.000155206
0.000155207
0.000155213
0.000155229
0.000155193
0.000155155
0.000155142
0.000155194
0.000155401
0.000155424
0.000155294
0.000155069
0.000153884
0.000148399
0.000130749
8.12995e-05
1.61713e-05
1.56824e-07
2.93447e-09
3.78985e-06
4.67167e-05
0.000109399
0.000139788
0.000151098
0.000154754
0.000155575
0.000155589
0.00015555
0.000155683
0.000155838
0.000155627
0.000155439
0.000155607
0.000155472
0.000155369
0.0001551
0.000154769
0.000154481
0.000154391
0.000154491
0.00015439
0.000154265
0.000154207
0.000154128
0.000153804
0.000153545
0.000153598
0.000154025
0.000154177
0.000154031
0.000154088
0.000154212
0.00015427
0.000154406
0.000154383
0.000154281
0.000154265
0.000154323
0.000154337
0.000154136
0.000154059
0.000154065
0.000154276
0.000154558
0.000154514
0.000154305
0.000153863
0.000151839
0.000144609
0.000123564
7.07129e-05
1.27515e-05
1.18149e-07
2.2298e-09
2.95838e-06
3.92286e-05
0.000100982
0.000136119
0.000149807
0.000155371
0.000156848
0.000156497
0.000156228
0.0001567
0.00015704
0.0001568
0.000156397
0.000156608
0.000156328
0.000155949
0.000155817
0.000155161
0.000154596
0.000154443
0.000154455
0.00015427
0.000154253
0.000154355
0.000154072
0.000153518
0.000153158
0.000153253
0.000153855
0.000154112
0.000153986
0.000154006
0.000154138
0.000154139
0.00015438
0.000154497
0.000154286
0.00015397
0.000154101
0.000154456
0.000154016
0.000153653
0.000153574
0.00015396
0.000154767
0.000154898
0.000154074
0.000153168
0.000150424
0.000141629
0.000117269
6.22944e-05
1.03901e-05
9.32946e-08
1.75678e-09
2.37862e-06
3.34164e-05
9.33783e-05
0.000132856
0.000148582
0.000155833
0.000158011
0.000157718
0.000157294
0.000157767
0.000158508
0.000158665
0.000158063
0.000158113
0.000158127
0.000157687
0.000157485
0.000156521
0.000155678
0.000155338
0.000155299
0.000155155
0.000154829
0.000155049
0.000155288
0.000154528
0.00015406
0.000154109
0.000154559
0.000154915
0.000154752
0.000154709
0.000154981
0.000154805
0.000155101
0.000154838
0.000154763
0.000154364
0.00015453
0.000154691
0.00015436
0.000154053
0.000154098
0.000155085
0.000155996
0.000156063
0.00015497
0.000153332
0.000149346
0.00013956
0.000111858
5.54225e-05
8.6742e-06
7.62323e-08
1.42527e-09
1.95975e-06
2.88627e-05
8.638e-05
0.000129588
0.000147837
0.000156196
0.000158593
0.000158479
0.000158112
0.000159184
0.000160474
0.000162164
0.000159667
0.000159636
0.000160471
0.000158169
0.000158949
0.000157637
0.000156878
0.000157008
0.000156409
0.000156442
0.00015747
0.00015778
0.00015716
0.000155335
0.000156697
0.000157033
0.000155189
0.000154965
0.00015597
0.000155011
0.000156475
0.000156608
0.000156679
0.000156951
0.000156868
0.000155566
0.000155415
0.000155653
0.000155614
0.00015481
0.000154798
0.000156237
0.000156791
0.00015816
0.000155694
0.000154049
0.000148763
0.00013698
0.000106654
4.97029e-05
7.39187e-06
6.40781e-08
1.18519e-09
1.65119e-06
2.52338e-05
7.99262e-05
0.000125335
0.000148607
0.000156717
0.000160909
0.000160151
0.00015664
0.000158313
0.000164064
0.000163853
0.000162958
0.000162712
0.000161516
0.000160249
0.00016011
0.000159622
0.000158871
0.000158688
0.000158114
0.000156933
0.000157418
0.000159609
0.000158582
0.000157577
0.000157869
0.000158361
0.00015776
0.00015712
0.000158323
0.000159265
0.000159095
0.000158866
0.000159001
0.000159709
0.000159151
0.000158025
0.00015692
0.000156826
0.000157143
0.00015756
0.00015743
0.000158027
0.000160734
0.000161402
0.000159139
0.000156095
0.000151241
0.000137266
0.000101103
4.46998e-05
6.40322e-06
5.51585e-08
1.00432e-09
1.4132e-06
2.22861e-05
7.3793e-05
0.000121874
0.00014298
0.000150938
0.000155285
0.000154815
0.000156276
0.000157908
0.000159113
0.000158891
0.000158556
0.000157961
0.000156249
0.000155087
0.000153314
0.000151928
0.000150732
0.000149984
0.000149346
0.00014924
0.000149724
0.000151072
0.000151266
0.000150537
0.000149605
0.000149614
0.000149757
0.00015014
0.000150605
0.000151304
0.000151107
0.000151231
0.000151386
0.00015175
0.00015188
0.000152574
0.000152646
0.000152655
0.00015331
0.000153922
0.00015358
0.000153946
0.000156223
0.000155297
0.000153921
0.000151003
0.000144823
0.000130734
9.53588e-05
4.02722e-05
5.58588e-06
4.75218e-08
8.64415e-10
1.22555e-06
1.98696e-05
6.82151e-05
0.00011162
0.000133208
0.000142584
0.000146011
0.000146655
0.000146934
0.000148174
0.000148901
0.000148717
0.000148204
0.000147318
0.000146266
0.000144828
0.000142921
0.000141287
0.00013995
0.000138797
0.000137974
0.000137673
0.000137934
0.000138722
0.000139677
0.000139456
0.000139159
0.000139124
0.00013889
0.000138794
0.000138639
0.000138582
0.000139536
0.000140085
0.000140624
0.000140957
0.000141689
0.000143111
0.000143532
0.000143889
0.000144625
0.000145086
0.0001453
0.000145465
0.000146068
0.000145837
0.000144747
0.00014198
0.000135146
0.000120775
8.72751e-05
3.63133e-05
4.92717e-06
4.13168e-08
7.53679e-10
1.07719e-06
1.77758e-05
6.19576e-05
0.000103304
0.000124614
0.000133536
0.0001372
0.000137917
0.000138325
0.000139088
0.000139405
0.000139104
0.000138504
0.00013754
0.000136617
0.000135244
0.000132977
0.000131045
0.000129452
0.000127731
0.000126601
0.000125632
0.000124823
0.0001257
0.000129573
0.000111315
0.000104061
0.000105758
0.000117213
0.000127917
0.000125955
0.000126283
0.000126824
0.000128134
0.000129828
0.000130697
0.000131834
0.000133585
0.0001342
0.000134464
0.000135165
0.000135746
0.000135915
0.000136166
0.000136769
0.000136699
0.000135673
0.000132711
0.000126059
0.000111841
7.96758e-05
3.31609e-05
4.37204e-06
3.623e-08
6.52806e-10
9.48538e-07
1.60162e-05
5.63039e-05
9.56429e-05
0.000116159
0.000125022
0.000128766
0.000129567
0.000129851
0.000130245
0.000130219
0.000129757
0.000129058
0.000128073
0.000127272
0.000125882
0.000123223
0.000121236
0.000118805
0.00011582
0.000114411
0.000112158
0.000112319
9.95955e-05
6.94399e-05
4.56039e-05
2.40185e-05
2.42362e-05
5.83117e-05
8.09083e-05
0.000114183
0.000113093
0.000113397
0.000115743
0.000118077
0.000119884
0.000122052
0.000124365
0.000125292
0.0001256
0.000126339
0.000126849
0.000127095
0.000127424
0.00012793
0.000127939
0.000127072
0.000124176
0.000117528
0.000103553
7.30225e-05
3.00723e-05
3.91122e-06
3.20716e-08
4.7094e-10
8.01328e-07
1.40802e-05
5.09642e-05
8.78438e-05
0.000107909
0.000116795
0.000120637
0.000121479
0.000121539
0.000121565
0.000121283
0.000120681
0.000119904
0.000119016
0.00011822
0.000116334
0.000113554
0.000110948
0.000108014
0.000104956
0.00010279
0.000102821
9.35659e-05
3.24046e-05
1.5748e-06
1.44892e-09
1.422e-08
1.24651e-05
4.18578e-05
0.000103496
0.000102044
0.000103887
0.000106696
0.00010976
0.00011234
0.000114799
0.000116419
0.000116831
0.00011766
0.000118221
0.000118585
0.000118926
0.000119385
0.000119498
0.000118788
0.000116042
0.000109507
9.5712e-05
6.70054e-05
2.72988e-05
3.50413e-06
2.84779e-08
1.13821e-10
4.76079e-07
1.14864e-05
4.48682e-05
7.92037e-05
9.85635e-05
0.00010747
0.000111289
0.000112077
0.000111788
0.000111391
0.00011093
0.000110206
0.000109382
0.000108479
0.000107537
0.000105302
0.000102406
9.94056e-05
9.61995e-05
9.34628e-05
9.30967e-05
8.17986e-05
2.38592e-05
1.35287e-06
2.17539e-10
5.76383e-06
6.00887e-05
8.83181e-05
9.20007e-05
9.51574e-05
9.85922e-05
0.000101801
0.000104511
0.000106112
0.000106746
0.000107713
0.000108414
0.000108869
0.000109161
0.000109579
0.00010985
0.000109367
0.000106874
0.00010062
8.72898e-05
6.12034e-05
2.50586e-05
3.12055e-06
2.36331e-08
1.52296e-10
5.59995e-07
1.06763e-05
3.98456e-05
6.88242e-05
8.49943e-05
9.31747e-05
9.62835e-05
9.66013e-05
9.61914e-05
9.53727e-05
9.47383e-05
9.43858e-05
9.31194e-05
9.19666e-05
9.03286e-05
8.87805e-05
8.69663e-05
8.39492e-05
8.05097e-05
7.86343e-05
7.47454e-05
4.9572e-05
6.84432e-06
1.13539e-07
1.19519e-06
2.49622e-05
6.8279e-05
7.7371e-05
7.93486e-05
8.20588e-05
8.56629e-05
8.76196e-05
8.87219e-05
8.97104e-05
9.09107e-05
9.19027e-05
9.26195e-05
9.33468e-05
9.4067e-05
9.4828e-05
9.46712e-05
9.2856e-05
8.7434e-05
7.56067e-05
5.31794e-05
2.23431e-05
3.01448e-06
2.63215e-08
3.2871e-10
5.65355e-07
1.03909e-05
3.70071e-05
6.24855e-05
7.74523e-05
8.49349e-05
8.80866e-05
8.83376e-05
8.76604e-05
8.73268e-05
8.66649e-05
8.5855e-05
8.48697e-05
8.34744e-05
8.16791e-05
8.06688e-05
7.90677e-05
7.57646e-05
7.29972e-05
7.0935e-05
6.2465e-05
3.06843e-05
3.78128e-06
1.47705e-07
4.41006e-10
4.90286e-09
9.8736e-07
1.45411e-05
5.01008e-05
6.86955e-05
7.18225e-05
7.40356e-05
7.72279e-05
7.86017e-05
8.02621e-05
8.08736e-05
8.18176e-05
8.32496e-05
8.44381e-05
8.53308e-05
8.62053e-05
8.67297e-05
8.65523e-05
8.48469e-05
7.96837e-05
6.86603e-05
4.81293e-05
2.02211e-05
2.69367e-06
2.18503e-08
3.61867e-10
5.32367e-07
9.55104e-06
3.37868e-05
5.67815e-05
7.0674e-05
7.78822e-05
8.08772e-05
8.12249e-05
8.08211e-05
8.04612e-05
7.96116e-05
7.87229e-05
7.78315e-05
7.65939e-05
7.50839e-05
7.38135e-05
7.25226e-05
6.96956e-05
6.68631e-05
6.45572e-05
5.39262e-05
2.28037e-05
3.21376e-06
4.3518e-07
8.03864e-08
2.28374e-08
2.20835e-08
2.18229e-08
3.83217e-08
1.92319e-07
1.40174e-06
1.08998e-05
4.02519e-05
6.09674e-05
6.57007e-05
6.8123e-05
7.09957e-05
7.24221e-05
7.33102e-05
7.37958e-05
7.49942e-05
7.64457e-05
7.75985e-05
7.86183e-05
7.96397e-05
8.01703e-05
7.9817e-05
7.80802e-05
7.30494e-05
6.25048e-05
4.34981e-05
1.83585e-05
2.39857e-06
1.92115e-08
3.33088e-10
4.85445e-07
8.63801e-06
3.06654e-05
5.16397e-05
6.47629e-05
7.18903e-05
7.48107e-05
7.52852e-05
7.48423e-05
7.4315e-05
7.38287e-05
7.29428e-05
7.18742e-05
7.05746e-05
6.9013e-05
6.79691e-05
6.68464e-05
6.45737e-05
6.19867e-05
5.91288e-05
4.68674e-05
1.91533e-05
3.51007e-06
7.76768e-07
5.50884e-07
1.02248e-06
1.45708e-06
1.32521e-06
8.64265e-07
9.77429e-07
2.1773e-06
9.92051e-06
3.37193e-05
5.46658e-05
6.05032e-05
6.286e-05
6.52887e-05
6.68255e-05
6.77338e-05
6.83086e-05
6.92108e-05
7.04671e-05
7.18169e-05
7.29343e-05
7.39538e-05
7.44085e-05
7.39373e-05
7.21696e-05
6.7202e-05
5.70697e-05
3.95758e-05
1.66604e-05
2.14352e-06
1.70942e-08
2.9952e-10
4.37238e-07
7.80749e-06
2.77963e-05
4.70078e-05
5.93272e-05
6.61905e-05
6.91113e-05
6.96987e-05
6.92856e-05
6.88152e-05
6.84443e-05
6.76131e-05
6.64935e-05
6.52159e-05
6.3754e-05
6.27514e-05
6.17501e-05
5.99233e-05
5.7781e-05
5.46154e-05
4.18014e-05
1.82438e-05
4.28575e-06
1.0716e-06
1.03225e-06
1.82255e-06
2.86935e-06
3.34042e-06
2.77514e-06
2.64794e-06
3.36644e-06
1.02469e-05
2.99751e-05
4.96424e-05
5.61755e-05
5.84627e-05
6.04059e-05
6.18441e-05
6.26819e-05
6.3238e-05
6.40369e-05
6.52539e-05
6.65809e-05
6.77723e-05
6.87766e-05
6.91009e-05
6.84732e-05
6.66175e-05
6.18346e-05
5.22036e-05
3.60282e-05
1.51124e-05
1.92358e-06
1.52893e-08
2.68423e-10
3.92452e-07
7.04964e-06
2.5189e-05
4.2734e-05
5.4193e-05
6.05925e-05
6.34322e-05
6.43352e-05
6.40688e-05
6.36523e-05
6.33325e-05
6.25202e-05
6.14314e-05
6.02482e-05
5.88865e-05
5.79757e-05
5.71312e-05
5.56132e-05
5.3811e-05
5.09083e-05
4.07789e-05
1.88609e-05
5.9247e-06
1.8257e-06
1.28849e-06
1.86955e-06
3.33766e-06
4.97474e-06
5.18109e-06
4.84913e-06
4.87236e-06
1.15029e-05
2.82257e-05
4.5758e-05
5.22036e-05
5.4355e-05
5.60351e-05
5.72435e-05
5.80793e-05
5.8561e-05
5.92029e-05
6.04827e-05
6.17541e-05
6.29673e-05
6.38692e-05
6.4054e-05
6.33458e-05
6.14637e-05
5.68374e-05
4.77013e-05
3.27869e-05
1.36797e-05
1.72267e-06
1.36488e-08
2.40187e-10
3.51703e-07
6.35077e-06
2.27296e-05
3.86936e-05
4.92392e-05
5.49686e-05
5.80875e-05
5.90524e-05
5.87854e-05
5.81148e-05
5.79575e-05
5.73231e-05
5.64228e-05
5.5222e-05
5.34329e-05
5.30083e-05
5.26753e-05
5.13513e-05
4.98048e-05
4.72194e-05
3.8372e-05
2.01435e-05
7.98024e-06
3.35121e-06
1.87625e-06
2.04273e-06
3.16177e-06
5.09587e-06
6.75681e-06
6.92117e-06
7.30007e-06
1.34951e-05
2.75069e-05
4.24596e-05
4.83661e-05
5.04777e-05
5.19188e-05
5.27079e-05
5.36358e-05
5.40705e-05
5.44903e-05
5.56842e-05
5.65912e-05
5.80935e-05
5.90367e-05
5.91568e-05
5.83042e-05
5.63709e-05
5.19919e-05
4.33884e-05
2.976e-05
1.23675e-05
1.54071e-06
1.20343e-08
2.14731e-10
3.1497e-07
5.71111e-06
2.04467e-05
3.48423e-05
4.45231e-05
4.97505e-05
5.29112e-05
5.38238e-05
5.36121e-05
5.26112e-05
5.26042e-05
5.1801e-05
5.11955e-05
5.05448e-05
4.8428e-05
4.83408e-05
4.82793e-05
4.71974e-05
4.56148e-05
4.33842e-05
3.53438e-05
2.13807e-05
1.0366e-05
5.33268e-06
3.27053e-06
2.6026e-06
3.2814e-06
4.47353e-06
7.13251e-06
9.53511e-06
1.25582e-05
1.72259e-05
2.82203e-05
3.93412e-05
4.46599e-05
4.62769e-05
4.74487e-05
4.82354e-05
4.92348e-05
4.94881e-05
4.99757e-05
5.09444e-05
5.15511e-05
5.33997e-05
5.40545e-05
5.4118e-05
5.30608e-05
5.11146e-05
4.7233e-05
3.92526e-05
2.68994e-05
1.11356e-05
1.36881e-06
1.05079e-08
1.91874e-10
2.82092e-07
5.12505e-06
1.83935e-05
3.11681e-05
3.80073e-05
4.40839e-05
4.80648e-05
4.90086e-05
4.86125e-05
4.68736e-05
4.79724e-05
4.78181e-05
4.73088e-05
4.64569e-05
4.5376e-05
4.33594e-05
4.43884e-05
4.36243e-05
4.20289e-05
3.87777e-05
3.29144e-05
2.22936e-05
1.29741e-05
7.8622e-06
5.33689e-06
4.04871e-06
4.26165e-06
3.8928e-06
5.65066e-06
1.21922e-05
2.18918e-05
2.39718e-05
2.82356e-05
3.58674e-05
3.99598e-05
4.26709e-05
4.35915e-05
4.25304e-05
4.27484e-05
4.54792e-05
4.6469e-05
4.73255e-05
4.79429e-05
4.90791e-05
4.80283e-05
4.92395e-05
4.82062e-05
4.64206e-05
4.23035e-05
3.52949e-05
2.4246e-05
9.94655e-06
1.21626e-06
9.19475e-09
1.71481e-10
2.52704e-07
4.62741e-06
1.63549e-05
2.77159e-05
3.58409e-05
4.09788e-05
4.3856e-05
4.6089e-05
4.42464e-05
4.43244e-05
4.34998e-05
4.32195e-05
4.45385e-05
4.25881e-05
4.31093e-05
4.23077e-05
4.14618e-05
4.07166e-05
3.87625e-05
3.70339e-05
3.12749e-05
2.29649e-05
1.62936e-05
1.1942e-05
8.76373e-06
6.76369e-06
6.43786e-06
4.42627e-06
3.86327e-06
1.04114e-05
3.09742e-05
3.43931e-05
2.85677e-05
3.33526e-05
3.79266e-05
3.92643e-05
4.08891e-05
4.09999e-05
4.09173e-05
4.15951e-05
4.33627e-05
4.45046e-05
4.42128e-05
4.50259e-05
4.64018e-05
4.4405e-05
4.38496e-05
4.26674e-05
3.85458e-05
3.16862e-05
2.15905e-05
9.01941e-06
1.08186e-06
8.06481e-09
1.53405e-10
2.26714e-07
4.19544e-06
1.51058e-05
2.56131e-05
3.30066e-05
3.84592e-05
4.21066e-05
4.23078e-05
4.28755e-05
4.17488e-05
4.1712e-05
4.13613e-05
4.08957e-05
4.09673e-05
4.06072e-05
4.00678e-05
3.94378e-05
3.86094e-05
3.80385e-05
3.58488e-05
3.06915e-05
2.49254e-05
2.18039e-05
1.90305e-05
1.43628e-05
1.1095e-05
1.05915e-05
6.57924e-06
4.18259e-06
6.83691e-06
3.03125e-05
4.39216e-05
2.83888e-05
3.2889e-05
3.58317e-05
3.83311e-05
3.86256e-05
3.96106e-05
3.99123e-05
4.04387e-05
4.08894e-05
4.20281e-05
4.35565e-05
4.4003e-05
4.38907e-05
4.24905e-05
4.20102e-05
4.12979e-05
3.61876e-05
3.0206e-05
2.01027e-05
8.14581e-06
9.65354e-07
7.09659e-09
1.37525e-10
2.03861e-07
3.82157e-06
1.42875e-05
2.46428e-05
3.21956e-05
3.73754e-05
4.00977e-05
4.149e-05
4.1576e-05
4.15306e-05
4.09828e-05
4.07631e-05
4.01263e-05
3.9529e-05
3.80641e-05
3.7532e-05
3.67633e-05
3.63377e-05
3.57518e-05
3.41752e-05
3.08977e-05
2.85047e-05
3.24306e-05
3.05251e-05
2.27313e-05
1.75857e-05
1.64914e-05
1.01775e-05
6.23328e-06
7.13782e-06
2.84484e-05
4.66643e-05
2.89586e-05
3.1423e-05
3.4812e-05
3.62766e-05
3.62645e-05
3.76284e-05
3.81133e-05
3.84861e-05
3.90146e-05
3.98818e-05
4.08417e-05
4.17552e-05
4.16744e-05
4.20789e-05
4.11263e-05
3.8871e-05
3.50446e-05
2.83063e-05
1.90496e-05
7.44479e-06
8.63827e-07
6.26433e-09
1.23584e-10
1.83819e-07
3.4778e-06
1.33133e-05
2.36047e-05
3.07087e-05
3.56999e-05
3.81201e-05
3.91371e-05
3.9664e-05
3.95013e-05
3.90421e-05
3.87648e-05
3.82836e-05
3.76074e-05
3.62088e-05
3.53128e-05
3.49352e-05
3.45489e-05
3.38709e-05
3.26319e-05
2.98579e-05
3.19368e-05
4.60844e-05
4.43528e-05
3.4119e-05
2.60185e-05
2.41165e-05
1.42915e-05
8.93635e-06
9.7782e-06
3.23607e-05
3.85469e-05
2.87516e-05
3.18563e-05
3.30281e-05
3.43889e-05
3.53522e-05
3.54694e-05
3.58465e-05
3.63183e-05
3.68829e-05
3.7602e-05
3.84501e-05
3.91721e-05
3.94856e-05
3.95737e-05
3.87355e-05
3.65109e-05
3.25969e-05
2.63904e-05
1.77374e-05
6.83859e-06
7.75637e-07
5.55433e-09
1.11505e-10
1.66447e-07
3.17759e-06
1.22676e-05
2.19328e-05
2.87499e-05
3.34217e-05
3.60461e-05
3.70886e-05
3.73658e-05
3.71915e-05
3.67111e-05
3.63408e-05
3.59242e-05
3.54059e-05
3.446e-05
3.34845e-05
3.32607e-05
3.2864e-05
3.23645e-05
3.1022e-05
2.93167e-05
3.68045e-05
6.14767e-05
5.93633e-05
4.37672e-05
3.25416e-05
2.9085e-05
1.76782e-05
1.18549e-05
1.71591e-05
4.07894e-05
4.02977e-05
2.85438e-05
3.06355e-05
3.24082e-05
3.27536e-05
3.34299e-05
3.36582e-05
3.39631e-05
3.43792e-05
3.48612e-05
3.5503e-05
3.62501e-05
3.68803e-05
3.72125e-05
3.70649e-05
3.62331e-05
3.42806e-05
3.04322e-05
2.46368e-05
1.64468e-05
6.26299e-06
6.99285e-07
4.94827e-09
1.00993e-10
1.51324e-07
2.91248e-06
1.13563e-05
2.03298e-05
2.67337e-05
3.12398e-05
3.39226e-05
3.49953e-05
3.52292e-05
3.50491e-05
3.46361e-05
3.42488e-05
3.38634e-05
3.34356e-05
3.27766e-05
3.20749e-05
3.17145e-05
3.13097e-05
3.06747e-05
2.94608e-05
2.88156e-05
3.55848e-05
6.36922e-05
6.7045e-05
5.12559e-05
3.85413e-05
3.11732e-05
1.92073e-05
1.69407e-05
3.22159e-05
4.8024e-05
3.58139e-05
2.73104e-05
2.91388e-05
3.07926e-05
3.14463e-05
3.18377e-05
3.2071e-05
3.23413e-05
3.26368e-05
3.29769e-05
3.35034e-05
3.41478e-05
3.46851e-05
3.49556e-05
3.47946e-05
3.39868e-05
3.20603e-05
2.83572e-05
2.29973e-05
1.52859e-05
5.74819e-06
6.33212e-07
4.43091e-09
9.18109e-11
1.3806e-07
2.67682e-06
1.05311e-05
1.8913e-05
2.48861e-05
2.91704e-05
3.18004e-05
3.28994e-05
3.31519e-05
3.29736e-05
3.25909e-05
3.22226e-05
3.18735e-05
3.15015e-05
3.10227e-05
3.05308e-05
3.01557e-05
2.97102e-05
2.89441e-05
2.78585e-05
2.83285e-05
3.97227e-05
7.1743e-05
6.78812e-05
4.83334e-05
3.41747e-05
2.90487e-05
2.19944e-05
2.76147e-05
4.71918e-05
5.11105e-05
3.21776e-05
2.68352e-05
2.79686e-05
2.92117e-05
2.98087e-05
3.01396e-05
3.03633e-05
3.06011e-05
3.08556e-05
3.11531e-05
3.15881e-05
3.21103e-05
3.25631e-05
3.27892e-05
3.26294e-05
3.18423e-05
2.99359e-05
2.64124e-05
2.1432e-05
1.42306e-05
5.29598e-06
5.75924e-07
3.98892e-09
8.37716e-11
1.26393e-07
2.46706e-06
9.78601e-06
1.76109e-05
2.31572e-05
2.71888e-05
2.97309e-05
3.08491e-05
3.11282e-05
3.09571e-05
3.05903e-05
3.0263e-05
2.99728e-05
2.96587e-05
2.92741e-05
2.88621e-05
2.85325e-05
2.81658e-05
2.75342e-05
2.66494e-05
2.77918e-05
4.21762e-05
7.56778e-05
6.37891e-05
4.21484e-05
2.92989e-05
2.71258e-05
2.76761e-05
3.91923e-05
5.38204e-05
4.8301e-05
3.08206e-05
2.61273e-05
2.66405e-05
2.75766e-05
2.81239e-05
2.84199e-05
2.86294e-05
2.8867e-05
2.91133e-05
2.9388e-05
2.97499e-05
3.0151e-05
3.05226e-05
3.07195e-05
3.05778e-05
2.98124e-05
2.79326e-05
2.45881e-05
1.99817e-05
1.32659e-05
4.89638e-06
5.2632e-07
3.61012e-09
7.67312e-11
1.16146e-07
2.28123e-06
9.11572e-06
1.64239e-05
2.15575e-05
2.53264e-05
2.77637e-05
2.88834e-05
2.91864e-05
2.90354e-05
2.86972e-05
2.84159e-05
2.81778e-05
2.79207e-05
2.76058e-05
2.72495e-05
2.69425e-05
2.6615e-05
2.60905e-05
2.53832e-05
2.718e-05
4.61986e-05
7.37293e-05
5.6631e-05
3.4502e-05
2.49298e-05
2.68918e-05
3.24007e-05
4.49013e-05
5.68734e-05
4.58813e-05
2.99658e-05
2.51111e-05
2.53898e-05
2.59666e-05
2.64911e-05
2.67635e-05
2.69581e-05
2.71823e-05
2.74156e-05
2.76734e-05
2.79761e-05
2.82936e-05
2.85948e-05
2.87723e-05
2.86552e-05
2.7911e-05
2.60599e-05
2.28906e-05
1.86418e-05
1.23877e-05
4.54252e-06
4.83375e-07
3.28628e-09
7.05141e-11
1.0707e-07
2.11622e-06
8.51532e-06
1.53491e-05
2.00929e-05
2.36023e-05
2.59303e-05
2.70378e-05
2.73589e-05
2.72442e-05
2.69506e-05
2.67013e-05
2.64904e-05
2.62755e-05
2.60148e-05
2.57022e-05
2.54185e-05
2.51161e-05
2.46511e-05
2.41207e-05
2.66089e-05
4.91692e-05
6.94312e-05
4.77414e-05
2.78872e-05
2.17546e-05
2.79529e-05
3.7252e-05
4.91249e-05
5.62593e-05
4.41036e-05
2.94921e-05
2.48788e-05
2.41895e-05
2.44421e-05
2.49307e-05
2.51853e-05
2.53708e-05
2.55791e-05
2.5794e-05
2.60238e-05
2.62808e-05
2.65432e-05
2.68006e-05
2.69659e-05
2.6866e-05
2.61362e-05
2.43192e-05
2.13237e-05
1.74125e-05
1.15943e-05
4.22851e-06
4.45852e-07
3.00635e-09
6.5018e-11
9.904e-08
1.96922e-06
7.97414e-06
1.43758e-05
1.87565e-05
2.20193e-05
2.42455e-05
2.53348e-05
2.56651e-05
2.55898e-05
2.53448e-05
2.51155e-05
2.49065e-05
2.47117e-05
2.449e-05
2.42109e-05
2.39473e-05
2.36738e-05
2.32598e-05
2.28826e-05
2.57816e-05
4.60003e-05
5.94517e-05
4.06808e-05
2.36492e-05
2.09565e-05
2.94765e-05
3.80291e-05
4.75976e-05
5.55959e-05
4.82056e-05
3.01674e-05
2.40925e-05
2.3066e-05
2.29971e-05
2.34251e-05
2.36783e-05
2.38638e-05
2.40646e-05
2.4266e-05
2.44635e-05
2.46801e-05
2.49138e-05
2.51422e-05
2.52953e-05
2.51987e-05
2.44756e-05
2.27061e-05
1.98861e-05
1.62915e-05
1.08786e-05
3.9509e-06
4.13057e-07
2.76506e-09
6.01155e-11
9.18309e-08
1.84027e-06
7.48309e-06
1.34862e-05
1.75284e-05
2.0561e-05
2.26976e-05
2.37694e-05
2.40989e-05
2.4051e-05
2.385e-05
2.36388e-05
2.34206e-05
2.32288e-05
2.3032e-05
2.2779e-05
2.25328e-05
2.22922e-05
2.19317e-05
2.16981e-05
2.45508e-05
3.96704e-05
5.07129e-05
3.51534e-05
2.20289e-05
2.11837e-05
2.82938e-05
3.48692e-05
4.32751e-05
5.3216e-05
4.94061e-05
3.13781e-05
2.3747e-05
2.20179e-05
2.1644e-05
2.20008e-05
2.22431e-05
2.24292e-05
2.26295e-05
2.28275e-05
2.30018e-05
2.31859e-05
2.34018e-05
2.36096e-05
2.37464e-05
2.36373e-05
2.29169e-05
2.12122e-05
1.85761e-05
1.52794e-05
1.02413e-05
3.71038e-06
3.86054e-07
2.58066e-09
5.57524e-11
8.53982e-08
1.7183e-06
7.03262e-06
1.2663e-05
1.63878e-05
1.92036e-05
2.12588e-05
2.23179e-05
2.26397e-05
2.26019e-05
2.24352e-05
2.22491e-05
2.20341e-05
2.18427e-05
2.16609e-05
2.14303e-05
2.12091e-05
2.10009e-05
2.06901e-05
2.05656e-05
2.3102e-05
3.47767e-05
4.47347e-05
3.29675e-05
2.15131e-05
2.14596e-05
2.5977e-05
3.06041e-05
3.81072e-05
4.87646e-05
5.07317e-05
3.59089e-05
2.53998e-05
2.10217e-05
2.03898e-05
2.06771e-05
2.08989e-05
2.10733e-05
2.12701e-05
2.14696e-05
2.16347e-05
2.17979e-05
2.20017e-05
2.21966e-05
2.23052e-05
2.21756e-05
2.14566e-05
1.98299e-05
1.73844e-05
1.43694e-05
9.67197e-06
3.49954e-06
3.63058e-07
2.43625e-09
5.18376e-11
7.9624e-08
1.61063e-06
6.61742e-06
1.18976e-05
1.53234e-05
1.79342e-05
1.99096e-05
2.09597e-05
2.12711e-05
2.12292e-05
2.10849e-05
2.09347e-05
2.07502e-05
2.05688e-05
2.03935e-05
2.01788e-05
1.99825e-05
1.98013e-05
1.95293e-05
1.94839e-05
2.14799e-05
3.08257e-05
4.06521e-05
3.07561e-05
2.15764e-05
2.05235e-05
2.33158e-05
2.66771e-05
3.3235e-05
4.33173e-05
4.78961e-05
3.71105e-05
2.51042e-05
2.00415e-05
1.92177e-05
1.94449e-05
1.9646e-05
1.98e-05
1.99881e-05
2.019e-05
2.03552e-05
2.051e-05
2.07061e-05
2.0889e-05
2.09677e-05
2.08118e-05
2.00969e-05
1.85515e-05
1.62971e-05
1.35493e-05
9.15973e-06
3.31146e-06
3.42712e-07
2.30884e-09
4.83524e-11
7.44232e-08
1.51251e-06
6.23532e-06
1.119e-05
1.43384e-05
1.67568e-05
1.86528e-05
1.9691e-05
1.99924e-05
1.99393e-05
1.98069e-05
1.96993e-05
1.95667e-05
1.94064e-05
1.92272e-05
1.90168e-05
1.88362e-05
1.86725e-05
1.84345e-05
1.84583e-05
2.00635e-05
2.77963e-05
3.83005e-05
3.24662e-05
2.41876e-05
2.07256e-05
2.12308e-05
2.33966e-05
2.89418e-05
3.7859e-05
4.36296e-05
3.72506e-05
2.48574e-05
1.90852e-05
1.81232e-05
1.82957e-05
1.84773e-05
1.86093e-05
1.8788e-05
1.89911e-05
1.91586e-05
1.93115e-05
1.95035e-05
1.96759e-05
1.97281e-05
1.9541e-05
1.88371e-05
1.73714e-05
1.5305e-05
1.28077e-05
8.69578e-06
3.14029e-06
3.24426e-07
2.19455e-09
4.52097e-11
6.96785e-08
1.42266e-06
5.88457e-06
1.05428e-05
1.34417e-05
1.56808e-05
1.74953e-05
1.85192e-05
1.88164e-05
1.87546e-05
1.86281e-05
1.85569e-05
1.84753e-05
1.83378e-05
1.81457e-05
1.79262e-05
1.77502e-05
1.75983e-05
1.73966e-05
1.7507e-05
1.88636e-05
2.52669e-05
3.59532e-05
3.36897e-05
2.6525e-05
2.08113e-05
1.97479e-05
2.10219e-05
2.55106e-05
3.35844e-05
3.941e-05
3.47909e-05
2.36048e-05
1.81396e-05
1.71103e-05
1.7228e-05
1.7392e-05
1.7506e-05
1.76762e-05
1.78774e-05
1.80415e-05
1.81916e-05
1.83806e-05
1.85456e-05
1.85752e-05
1.83654e-05
1.76729e-05
1.62837e-05
1.43957e-05
1.21305e-05
8.27098e-06
2.98398e-06
3.07702e-07
2.0926e-09
4.23705e-11
6.53738e-08
1.34031e-06
5.56255e-06
9.95387e-06
1.26329e-05
1.47054e-05
1.64367e-05
1.74462e-05
1.77524e-05
1.76921e-05
1.75678e-05
1.75131e-05
1.74632e-05
1.73395e-05
1.71311e-05
1.68937e-05
1.67168e-05
1.65786e-05
1.64198e-05
1.66297e-05
1.77343e-05
2.35327e-05
3.403e-05
3.4796e-05
3.04393e-05
2.1529e-05
1.86434e-05
1.91985e-05
2.29312e-05
2.98488e-05
3.57052e-05
3.23556e-05
2.2386e-05
1.72351e-05
1.61687e-05
1.62373e-05
1.639e-05
1.64946e-05
1.66575e-05
1.68503e-05
1.70026e-05
1.71456e-05
1.73304e-05
1.74898e-05
1.75036e-05
1.72767e-05
1.65959e-05
1.52871e-05
1.35597e-05
1.15056e-05
7.87711e-06
2.83895e-06
2.92429e-07
1.99994e-09
3.97755e-11
6.14327e-08
1.26494e-06
5.26605e-06
9.4152e-06
1.19002e-05
1.38165e-05