/*--------------------------------*- C++ -*----------------------------------*\
  =========                 |
  \\      /  F ield         | OpenFOAM: The Open Source CFD Toolbox
   \\    /   O peration     | Website:  https://openfoam.org
    \\  /    A nd           | Version:  7
     \\/     M anipulation  |
\*---------------------------------------------------------------------------*/
FoamFile
{
    version     2.0;
    format      ascii;
    class       volScalarField;
    location    "85";
    object      p;
}
// * * * * * * * * * * * * * * * * * * * * * * * * * * * * * * * * * * * * * //

dimensions      [0 2 -2 0 0 0 0];

internalField   nonuniform List<scalar> 
17475
(
0.743906
0.429354
0.340001
0.301516
0.279038
0.26421
0.253757
0.246135
0.240497
0.236329
0.233292
0.231152
0.229737
0.228912
0.22857
0.228622
0.228988
0.229596
0.23038
0.231278
0.232233
0.23319
0.234096
0.234906
0.235581
0.236088
0.236401
0.2365
0.23638
0.236042
0.2355
0.234774
0.233895
0.232901
0.231836
0.230751
0.229701
0.228745
0.227947
0.227376
0.227105
0.227216
0.227803
0.228974
0.230862
0.233638
0.237531
0.242857
0.250082
0.259915
0.273489
0.292679
0.320315
0.363046
0.384924
0.305922
0.320357
0.306235
0.28761
0.271951
0.259998
0.250981
0.24417
0.239033
0.235196
0.232391
0.230422
0.229138
0.22842
0.228169
0.228299
0.228735
0.229409
0.230255
0.231212
0.232221
0.233227
0.23418
0.235033
0.235743
0.236276
0.236605
0.236711
0.236587
0.236236
0.235671
0.234914
0.233996
0.232957
0.231841
0.2307
0.229591
0.228571
0.227705
0.227061
0.22671
0.226731
0.227212
0.228253
0.229977
0.232534
0.236122
0.241007
0.247562
0.256328
0.268127
0.284283
0.306708
0.342371
0.352062
0.273032
0.270399
0.268275
0.262183
0.255438
0.248905
0.243183
0.238445
0.234674
0.231778
0.229652
0.228194
0.227311
0.226921
0.226949
0.227325
0.227986
0.228868
0.229909
0.231051
0.232234
0.233402
0.234502
0.235482
0.236297
0.236907
0.237283
0.237406
0.237269
0.236872
0.23623
0.235369
0.234323
0.233135
0.231853
0.230531
0.229229
0.228004
0.226921
0.226045
0.225441
0.225178
0.225329
0.225972
0.227194
0.229094
0.231785
0.235395
0.240058
0.245892
0.252915
0.260802
0.268447
0.272985
0.264626
0.226649
0.234975
0.240007
0.240404
0.238555
0.235899
0.23311
0.230544
0.228376
0.226679
0.225471
0.224735
0.22444
0.224546
0.225006
0.225772
0.226792
0.228013
0.229377
0.230826
0.232302
0.233744
0.235093
0.236288
0.237279
0.238021
0.238478
0.238628
0.23846
0.237979
0.237201
0.236155
0.234883
0.233434
0.231864
0.230233
0.228603
0.227036
0.225594
0.224342
0.223334
0.222627
0.222274
0.222325
0.222825
0.223813
0.225312
0.227316
0.229764
0.232483
0.235098
0.236842
0.236291
0.230348
0.215205
0.205824
0.212249
0.218541
0.221835
0.223035
0.223061
0.222503
0.22175
0.221042
0.220525
0.22028
0.220346
0.220734
0.221439
0.22244
0.223708
0.225204
0.226883
0.228692
0.230575
0.232469
0.234308
0.236018
0.237531
0.238784
0.239722
0.2403
0.240489
0.240274
0.239664
0.238677
0.237353
0.235743
0.233909
0.231917
0.229839
0.227744
0.225695
0.223766
0.22201
0.220476
0.219208
0.21824
0.217595
0.217284
0.217298
0.217601
0.218112
0.218683
0.219061
0.218818
0.217279
0.213394
0.2056
0.195477
0.192279
0.196906
0.202805
0.207057
0.20966
0.211217
0.212144
0.21274
0.213221
0.213738
0.214391
0.215248
0.216347
0.217702
0.219315
0.221171
0.223243
0.225494
0.227875
0.230327
0.232785
0.235161
0.237371
0.239329
0.240955
0.242175
0.242929
0.243176
0.242897
0.242101
0.240818
0.239098
0.237014
0.234644
0.232076
0.229396
0.226683
0.224016
0.221472
0.2191
0.216944
0.215036
0.213394
0.212021
0.210905
0.210006
0.209259
0.208557
0.207739
0.206565
0.204712
0.201733
0.197041
0.190146
0.183687
0.182095
0.185398
0.190364
0.194785
0.198028
0.200439
0.202303
0.203839
0.20522
0.206575
0.208007
0.209591
0.211375
0.213391
0.215655
0.218163
0.220899
0.223833
0.226917
0.230097
0.23328
0.236368
0.239255
0.241829
0.24398
0.245604
0.246612
0.246948
0.246583
0.245529
0.243831
0.241563
0.238827
0.235733
0.232399
0.228935
0.225435
0.222008
0.218725
0.215637
0.212785
0.210191
0.20786
0.20578
0.203922
0.202234
0.200639
0.199029
0.197263
0.195159
0.192489
0.188974
0.184282
0.17856
0.174185
0.173336
0.175798
0.179917
0.18417
0.187647
0.190496
0.192922
0.195083
0.197112
0.19912
0.201198
0.203421
0.205842
0.2085
0.211425
0.214625
0.218102
0.221831
0.225771
0.229845
0.233957
0.237982
0.241784
0.24521
0.248101
0.250306
0.25169
0.252164
0.251687
0.250273
0.247992
0.24496
0.241331
0.237263
0.23292
0.228447
0.223967
0.21962
0.215474
0.211583
0.207981
0.204681
0.201677
0.198942
0.196437
0.194101
0.191854
0.189602
0.187229
0.184596
0.181545
0.17789
0.173447
0.168605
0.165375
0.165255
0.167156
0.170575
0.174535
0.178044
0.181093
0.183834
0.186388
0.188863
0.191351
0.193934
0.196686
0.19967
0.202935
0.20652
0.210447
0.214722
0.219359
0.224296
0.22946
0.234756
0.240018
0.245062
0.249677
0.253631
0.256688
0.258635
0.25933
0.2587
0.256772
0.253657
0.249543
0.244673
0.239284
0.233608
0.227833
0.222154
0.216712
0.211579
0.20681
0.202427
0.198429
0.194794
0.191483
0.188438
0.185598
0.182883
0.180205
0.17747
0.174564
0.171378
0.167771
0.163715
0.15979
0.157349
0.157462
0.158969
0.161828
0.165443
0.168858
0.171952
0.174834
0.177607
0.18036
0.183176
0.186131
0.189297
0.192744
0.196535
0.20073
0.20537
0.210516
0.216151
0.222241
0.228725
0.2355
0.242399
0.249147
0.255448
0.260956
0.265297
0.268117
0.269168
0.268326
0.265635
0.261289
0.255599
0.248968
0.241762
0.234305
0.226873
0.219736
0.213011
0.20678
0.201083
0.19592
0.191267
0.187077
0.183289
0.179834
0.176637
0.173613
0.170681
0.167756
0.164757
0.161587
0.158141
0.154415
0.151085
0.149184
0.149736
0.150943
0.153338
0.156584
0.159824
0.16285
0.165741
0.168587
0.171468
0.174461
0.177642
0.181088
0.18488
0.189097
0.193825
0.199136
0.205112
0.211789
0.219168
0.227214
0.235834
0.244867
0.253971
0.262701
0.27054
0.276882
0.281101
0.282751
0.281595
0.277715
0.271465
0.263415
0.254221
0.244475
0.234633
0.225133
0.216236
0.208057
0.200657
0.194035
0.18815
0.182936
0.178309
0.174175
0.170455
0.167057
0.163902
0.160901
0.157966
0.155012
0.151958
0.148725
0.14538
0.142593
0.141062
0.141946
0.142915
0.144904
0.147768
0.150758
0.153621
0.156405
0.159191
0.162056
0.165073
0.168319
0.17188
0.175849
0.180331
0.185426
0.191286
0.197998
0.205666
0.21439
0.224191
0.235031
0.246778
0.259133
0.271426
0.282861
0.29244
0.299031
0.301729
0.30008
0.294227
0.284887
0.273157
0.260161
0.246806
0.233836
0.221797
0.210869
0.201142
0.192598
0.185155
0.17869
0.173084
0.168198
0.163935
0.160168
0.156777
0.153662
0.150734
0.147912
0.145117
0.142273
0.13932
0.136372
0.134047
0.132825
0.134011
0.1348
0.136428
0.13888
0.141547
0.144153
0.14672
0.149318
0.152017
0.154892
0.158021
0.161497
0.165426
0.169935
0.175161
0.181289
0.188483
0.196941
0.206857
0.218448
0.231796
0.246882
0.263534
0.281068
0.298195
0.313264
0.324102
0.328772
0.326282
0.316932
0.302296
0.284591
0.265824
0.247433
0.230519
0.21549
0.202427
0.19125
0.181768
0.173758
0.167019
0.161356
0.156548
0.152422
0.148827
0.145638
0.142747
0.140057
0.137492
0.134973
0.132431
0.129822
0.127291
0.125393
0.124435
0.125894
0.12652
0.127819
0.129847
0.132129
0.134392
0.136631
0.138907
0.141288
0.143843
0.146651
0.149803
0.153416
0.157619
0.162621
0.168597
0.175793
0.184527
0.19517
0.208117
0.223855
0.242654
0.264644
0.289592
0.315881
0.34065
0.359665
0.36836
0.364281
0.348196
0.323876
0.296176
0.268639
0.243632
0.222094
0.204026
0.189134
0.176976
0.167133
0.159198
0.152753
0.147473
0.143106
0.139441
0.136298
0.133557
0.131096
0.128811
0.126646
0.124523
0.122379
0.120191
0.118113
0.116585
0.115798
0.117607
0.118107
0.1191
0.120673
0.12249
0.124319
0.12613
0.127965
0.129879
0.131934
0.1342
0.136759
0.139719
0.143228
0.147491
0.152703
0.159162
0.167264
0.177545
0.190729
0.207659
0.229437
0.257144
0.291395
0.331898
0.374415
0.410492
0.428262
0.420812
0.390275
0.347113
0.302608
0.262806
0.230161
0.204261
0.184116
0.168658
0.15688
0.147851
0.140861
0.135434
0.131141
0.127723
0.12493
0.122582
0.120556
0.11874
0.117049
0.115422
0.113804
0.112147
0.110446
0.108858
0.107733
0.107148
0.109167
0.109554
0.110243
0.111342
0.112652
0.113978
0.115271
0.11655
0.117854
0.119229
0.120727
0.122416
0.124382
0.126767
0.129699
0.133383
0.138099
0.144247
0.152409
0.163451
0.178694
0.200044
0.230362
0.273001
0.331704
0.406068
0.480237
0.520593
0.505239
0.440504
0.359417
0.288794
0.235679
0.197481
0.170641
0.151975
0.138908
0.129685
0.123121
0.118426
0.115013
0.112493
0.110581
0.109054
0.107827
0.106768
0.105794
0.104836
0.103861
0.102846
0.101755
0.100603
0.0995349
0.0987903
0.0983747
0.100616
0.100893
0.101274
0.101891
0.10267
0.103457
0.104173
0.104812
0.105392
0.105939
0.10648
0.107054
0.107705
0.108515
0.109532
0.110894
0.112754
0.115334
0.119074
0.124581
0.132877
0.146067
0.16781
0.204842
0.26994
0.387268
0.547144
0.649474
0.613727
0.461648
0.309951
0.216967
0.163522
0.132785
0.114957
0.104617
0.0986018
0.0950875
0.0932253
0.0923045
0.0918903
0.0918587
0.0919902
0.0921645
0.0923411
0.0924562
0.0924809
0.0923931
0.0921779
0.0918255
0.0913374
0.0907497
0.0901928
0.0898273
0.0895827
0.0917025
0.0918246
0.0919677
0.0922595
0.0926234
0.0929022
0.0930169
0.0929584
0.0927337
0.092349
0.0918045
0.0910966
0.0902129
0.0891448
0.087853
0.0863025
0.0844277
0.0821267
0.0792594
0.0755774
0.0707031
0.0643416
0.0555976
0.0431822
0.0258052
0.112515
0.385159
0.238671
0.0729782
0.0103081
0.01881
0.0278758
0.0361134
0.0433547
0.0497566
0.0551929
0.0599011
0.0639341
0.067385
0.0703344
0.0728286
0.0749191
0.0766485
0.0780507
0.0791533
0.0799796
0.080548
0.0808774
0.0809939
0.0809542
0.0808855
0.0808972
0.0808736
0.0812783
0.0815194
0.0820699
0.082613
0.0828061
0.0825836
0.0820448
0.0812309
0.0801568
0.0788161
0.0771537
0.0751128
0.0726234
0.0695896
0.0658762
0.0612846
0.0555098
0.0480648
0.0381781
0.0244994
0.00455832
-0.0263757
-0.0783432
-0.175722
-0.315103
-0.483172
-0.311886
-0.168964
-0.0946724
-0.0502147
-0.0210358
-0.000475517
0.0147502
0.0264443
0.0356542
0.0430395
0.0490347
0.0539289
0.0579277
0.0612247
0.0639197
0.0661026
0.0678604
0.0692085
0.0702073
0.0708999
0.0713236
0.0715089
0.0714952
0.0713752
0.0758783
0.075605
0.0753305
0.0745995
0.0736141
0.0725261
0.0712815
0.0697854
0.0679457
0.0657126
0.0630137
0.059767
0.0558582
0.05113
0.045386
0.0383484
0.0296058
0.0185466
0.00423169
-0.01483
-0.0410762
-0.0786865
-0.13633
-0.228311
-0.321428
-0.38846
-0.268776
-0.176407
-0.116399
-0.074598
-0.0442503
-0.0215282
-0.00408331
0.00957668
0.0204349
0.0291688
0.0362629
0.0420616
0.0468001
0.0506866
0.0538668
0.0564358
0.0585155
0.060152
0.0613713
0.0621753
0.062537
0.0624612
0.0622586
0.0660621
0.066129
0.0658103
0.0651716
0.0642033
0.0628574
0.0611374
0.0590331
0.0565031
0.0534799
0.0498717
0.0455647
0.0404189
0.0342187
0.0267427
0.0176701
0.00656509
-0.00716996
-0.0243658
-0.0461296
-0.0738237
-0.108915
-0.151773
-0.199415
-0.222738
-0.234973
-0.376019
-0.345414
-0.277675
-0.206423
-0.15042
-0.107295
-0.0741024
-0.0482635
-0.0279415
-0.0117633
0.00125213
0.0118136
0.0204496
0.0275535
0.0334182
0.0382705
0.0422869
0.0456034
0.0483346
0.0505741
0.0524034
0.0538909
0.0550666
0.0558349
0.055955
0.0586365
0.058811
0.0584389
0.0574352
0.0559534
0.0541159
0.0519279
0.049333
0.0462557
0.0426075
0.038287
0.0331712
0.0271064
0.0198519
0.0111978
0.000838248
-0.0116003
-0.0265648
-0.0446425
-0.0663967
-0.0922166
-0.122218
-0.15568
-0.185474
-0.19643
-0.207252
-0.22963
-0.255537
-0.289313
-0.316903
-0.3244
-0.30995
-0.261742
-0.204972
-0.15775
-0.119684
-0.0888339
-0.0637286
-0.0433625
-0.0267074
-0.0129828
-0.00167715
0.00770437
0.0155293
0.0220639
0.0275338
0.0321176
0.0359587
0.0391776
0.0418757
0.0441253
0.0459467
0.0472729
0.0479942
0.048113
0.0515999
0.0517446
0.0512872
0.0501126
0.0483668
0.0461998
0.0436476
0.0406621
0.0371631
0.0330517
0.0282163
0.0225347
0.0158515
0.00791715
-0.00147581
-0.0125709
-0.0256749
-0.0411426
-0.0593607
-0.0806853
-0.105382
-0.13339
-0.163498
-0.186879
-0.194543
-0.207652
-0.232129
-0.257969
-0.282532
-0.293263
-0.286753
-0.2677
-0.230904
-0.187927
-0.150434
-0.118999
-0.0925766
-0.0703635
-0.0516925
-0.0359883
-0.0227459
-0.0115818
-0.00213517
0.00589249
0.0126759
0.0184306
0.023316
0.0274734
0.0310068
0.0340035
0.0365363
0.0386119
0.040135
0.0409642
0.0410678
0.0448999
0.045044
0.0445725
0.0433418
0.0414716
0.039119
0.0363436
0.0331126
0.0293487
0.0249564
0.0198221
0.0138198
0.00679784
-0.00141749
-0.0110842
-0.022392
-0.0356173
-0.0510606
-0.0690568
-0.089963
-0.114115
-0.141796
-0.172299
-0.197077
-0.206501
-0.217492
-0.236229
-0.252697
-0.26134
-0.254685
-0.236241
-0.215486
-0.189109
-0.159702
-0.13281
-0.109133
-0.0882998
-0.0700292
-0.0540945
-0.0402418
-0.0282661
-0.0179073
-0.00897071
-0.00125568
0.00539826
0.0111296
0.0160632
0.0203146
0.0239771
0.0271285
0.0298213
0.0320334
0.033642
0.0344987
0.0346014
0.0387799
0.0389507
0.0385041
0.0372701
0.0353483
0.0329123
0.0300356
0.026696
0.0228231
0.0183265
0.0131044
0.00704335
1.05016e-05
-0.00817717
-0.0177464
-0.0288529
-0.0417542
-0.0567486
-0.0741868
-0.0944937
-0.118242
-0.146196
-0.177944
-0.205383
-0.218477
-0.227129
-0.236523
-0.239262
-0.230784
-0.209519
-0.1821
-0.161012
-0.144851
-0.127944
-0.110848
-0.0945109
-0.0792204
-0.065131
-0.0523236
-0.0407982
-0.0305047
-0.0213607
-0.0132833
-0.00617148
7.76134e-05
0.00553859
0.010312
0.0144839
0.018117
0.0212796
0.0240057
0.0262543
0.0278752
0.0287156
0.0287885
0.0332796
0.0334694
0.033063
0.0318815
0.0300048
0.0275935
0.0247329
0.0214172
0.0175881
0.0131638
0.00805084
0.00214532
-0.00466378
-0.0125138
-0.0216188
-0.0321528
-0.0443232
-0.0584248
-0.0748041
-0.0939335
-0.116516
-0.143376
-0.174515
-0.203536
-0.220556
-0.22815
-0.229932
-0.221785
-0.201163
-0.169024
-0.135188
-0.114045
-0.105128
-0.0976127
-0.0885631
-0.0785483
-0.0681317
-0.0578568
-0.048027
-0.0388144
-0.0303095
-0.0225456
-0.0155188
-0.00920243
-0.00355443
0.00147313
0.00593066
0.00987299
0.0133496
0.0164072
0.0190587
0.0212417
0.0227923
0.0235578
0.0235768
0.0284526
0.0286751
0.028327
0.0272381
0.0254705
0.023166
0.0204244
0.0172508
0.013599
0.009401
0.00457815
-0.000959653
-0.00730572
-0.0145721
-0.0229081
-0.0325086
-0.0435298
-0.0562178
-0.0708894
-0.0879889
-0.108111
-0.132056
-0.159968
-0.187684
-0.207564
-0.216134
-0.21432
-0.200586
-0.175058
-0.138437
-0.100925
-0.0785917
-0.0739352
-0.0725896
-0.068897
-0.0634573
-0.0568999
-0.0497515
-0.0424853
-0.0353625
-0.0285427
-0.0221291
-0.0161789
-0.0107179
-0.00574913
-0.00125969
0.00277497
0.0063866
0.00960865
0.0124696
0.0149657
0.0170187
0.0184581
0.0191424
0.0191057
0.0243012
0.0245396
0.0242519
0.023292
0.0216918
0.0195787
0.0170486
0.0141212
0.0107643
0.00692564
0.00254379
-0.00244947
-0.00813118
-0.0145812
-0.0219009
-0.0302492
-0.039756
-0.0505903
-0.0630008
-0.0773059
-0.0939474
-0.11347
-0.136174
-0.159544
-0.179748
-0.191065
-0.189453
-0.17473
-0.149933
-0.115989
-0.0793451
-0.0557767
-0.0521135
-0.0540434
-0.0533995
-0.050748
-0.0467553
-0.041933
-0.036648
-0.0312303
-0.0258614
-0.0206661
-0.0157352
-0.0111228
-0.00685693
-0.00294564
0.000615645
0.00384028
0.00674684
0.00934933
0.0116291
0.0134946
0.0147734
0.0153381
0.0152487
0.0208157
0.0210758
0.0208663
0.0200526
0.0186582
0.0167921
0.0145444
0.0119446
0.00897471
0.00559851
0.0017731
-0.00254751
-0.00741498
-0.012883
-0.019014
-0.0258992
-0.0336455
-0.0423465
-0.0521395
-0.0632073
-0.0757889
-0.0901893
-0.106663
-0.124088
-0.141899
-0.154411
-0.155658
-0.144699
-0.123597
-0.0949779
-0.0637763
-0.0418915
-0.0383267
-0.0412886
-0.0419107
-0.0407284
-0.0382572
-0.0349214
-0.0310911
-0.0269674
-0.0227651
-0.0186077
-0.014583
-0.0107544
-0.00716023
-0.00382179
-0.000747076
0.0020653
0.00462283
0.00692764
0.00894932
0.0105885
0.0116846
0.0121312
0.0119853
0.0179715
0.018251
0.0181191
0.0174672
0.0163096
0.0147348
0.0128238
0.0106113
0.00809321
0.00524968
0.00205613
-0.00151323
-0.00548426
-0.00988486
-0.014743
-0.0200889
-0.0259669
-0.032417
-0.0394863
-0.0472254
-0.0556826
-0.0649758
-0.0753293
-0.0867328
-0.100949
-0.112929
-0.116565
-0.110312
-0.0950607
-0.0732386
-0.0496066
-0.0324613
-0.0298935
-0.0328825
-0.0336711
-0.0329751
-0.0313002
-0.0289027
-0.026015
-0.0228557
-0.0195618
-0.0162544
-0.013004
-0.00986909
-0.00689028
-0.00409335
-0.0014923
0.000907685
0.00310618
0.005096
0.00683781
0.00823194
0.00913463
0.0094592
0.00926421
0.0157212
0.0160176
0.015968
0.0154812
0.0145778
0.0133202
0.0117778
0.00998704
0.00795567
0.00567868
0.00314823
0.000357428
-0.00269487
-0.00600866
-0.00957932
-0.0134019
-0.0174691
-0.0217712
-0.0262695
-0.0309023
-0.0355988
-0.0403794
-0.0454796
-0.0516265
-0.0619491
-0.0728149
-0.0782457
-0.0760238
-0.0665873
-0.0521343
-0.0363504
-0.0255972
-0.0248983
-0.0273392
-0.0277177
-0.0269634
-0.0255778
-0.0237092
-0.0214651
-0.0189902
-0.0163991
-0.0137736
-0.0111745
-0.0086438
-0.00621689
-0.00391858
-0.00176444
0.000236643
0.00207943
0.00375017
0.00520468
0.00634838
0.00705639
0.00726342
0.00702851
0.0140061
0.0143136
0.0143463
0.0140391
0.0133893
0.0124524
0.0112871
0.0099283
0.00839089
0.00668357
0.00481267
0.0027885
0.000625305
-0.00165655
-0.00403022
-0.0064584
-0.00889078
-0.0112543
-0.0134771
-0.0154367
-0.016994
-0.0181204
-0.0191182
-0.0213372
-0.0286249
-0.0381793
-0.0448513
-0.0461739
-0.0421432
-0.0343893
-0.0259056
-0.0208431
-0.0217895
-0.0234336
-0.0231594
-0.0221045
-0.0207458
-0.0191482
-0.0173364
-0.0153693
-0.0133214
-0.0112497
-0.00919681
-0.00718929
-0.00525292
-0.00340827
-0.00166997
-4.77748e-05
0.00145005
0.00280628
0.00397518
0.00487336
0.00539404
0.00549509
0.0052261
0.0127677
0.013081
0.0131861
0.013042
0.0126419
0.0120232
0.0112284
0.0102916
0.00923243
0.00806736
0.00681456
0.00549599
0.00414005
0.00278435
0.0014766
0.000276088
-0.000742598
-0.00148594
-0.00183571
-0.00165209
-0.000774089
0.000838868
0.00280692
0.00335847
-0.00199477
-0.0111314
-0.0189248
-0.0230778
-0.0236045
-0.0214372
-0.0185185
-0.0177056
-0.0194355
-0.0201767
-0.019235
-0.0178619
-0.0164532
-0.0150172
-0.0135137
-0.0119401
-0.0103321
-0.00872073
-0.00713078
-0.00557828
-0.00407793
-0.00264452
-0.00129026
-2.44198e-05
0.00114331
0.0021937
0.00308379
0.00374076
0.00408791
0.00409401
0.00379954
0.0119391
0.0122581
0.0124296
0.0124292
0.0122516
0.0119285
0.0114809
0.010935
0.0103146
0.00964224
0.00894368
0.00825071
0.00760142
0.00704325
0.00663466
0.00644803
0.00657299
0.00711753
0.00820532
0.00998444
0.0126028
0.0160838
0.0199488
0.0220588
0.017719
0.00875799
-0.000248366
-0.00696819
-0.0108968
-0.0127312
-0.0138293
-0.0153567
-0.0169145
-0.0167785
-0.0153588
-0.0138007
-0.0123985
-0.0111151
-0.00987942
-0.00864572
-0.0074121
-0.00619714
-0.00501122
-0.00386117
-0.0027512
-0.00169143
-0.000691207
0.000241293
0.00109572
0.00185306
0.00247514
0.00290559
0.00308995
0.00301346
0.00270163
0.0114578
0.0117702
0.011993
0.012122
0.0121497
0.012083
0.0119392
0.0117391
0.0115046
0.011262
0.011041
0.0108784
0.0108176
0.0109114
0.0112237
0.0118319
0.0128288
0.014323
0.0164372
0.0193022
0.0230317
0.0276289
0.0325288
0.0353383
0.0312911
0.0219805
0.011986
0.00360503
-0.00272811
-0.00712151
-0.0102177
-0.0125293
-0.0134643
-0.0127039
-0.011118
-0.00960233
-0.00834022
-0.00727296
-0.00631716
-0.00541291
-0.00453216
-0.00367815
-0.00285774
-0.00207113
-0.00131543
-0.000597536
7.55605e-05
0.000696492
0.00125513
0.00173329
0.00210121
0.00231886
0.0023573
0.00221201
0.00189065
0.0112459
0.0115579
0.0118199
0.0120469
0.0122381
0.0123904
0.012508
0.012603
0.0126957
0.0128125
0.0129855
0.0132533
0.0136609
0.0142619
0.0151197
0.01631
0.0179211
0.0200538
0.0228171
0.0263228
0.0306504
0.0357086
0.0409777
0.0438159
0.0397448
0.03031
0.0196725
0.0101804
0.00270363
-0.00279599
-0.00663109
-0.00856955
-0.00873767
-0.00773678
-0.00632776
-0.00510007
-0.00413831
-0.00338158
-0.00275228
-0.00219123
-0.00166306
-0.00115432
-0.000675051
-0.000225998
0.00019889
0.00060137
0.000970785
0.0013005
0.00158067
0.00179636
0.00192608
0.00195151
0.00186003
0.00165442
0.00133013
0.0112324
0.0115378
0.0118243
0.0121311
0.012455
0.0127845
0.0131139
0.01345
0.0138078
0.0142125
0.0146959
0.0152954
0.0160545
0.017024
0.018263
0.0198404
0.0218343
0.024331
0.0274209
0.0311886
0.0356805
0.0407856
0.0458438
0.0484152
0.0443185
0.0348924
0.0242273
0.0146279
0.00692905
0.0013738
-0.00194816
-0.00306911
-0.00279975
-0.00196159
-0.00102347
-0.000286482
0.000232538
0.000587781
0.000838184
0.0010327
0.00120357
0.0013673
0.00152156
0.00165375
0.00176877
0.0018752
0.00196226
0.00202037
0.00203984
0.00200945
0.00191941
0.00176921
0.00156769
0.00131669
0.000995492
0.0113545
0.0116494
0.011956
0.0123191
0.0127379
0.0132055
0.0137012
0.0142233
0.0147849
0.0154075
0.0161207
0.0169587
0.0179613
0.0191738
0.0206478
0.0224417
0.0246197
0.0272507
0.0304032
0.0341365
0.0384671
0.0432712
0.048017
0.0501621
0.0460997
0.0372776
0.0271793
0.0180851
0.010975
0.00624401
0.00394011
0.0035593
0.0039364
0.00431729
0.0046056
0.00472356
0.00470504
0.00459365
0.00442587
0.00423454
0.00404476
0.00386825
0.00370547
0.00354487
0.00337044
0.00319713
0.003021
0.00282686
0.00260492
0.0023483
0.0020586
0.00175282
0.0014547
0.0011702
0.000853762
0.0115565
0.0118415
0.0121554
0.0125584
0.0130473
0.0136098
0.014225
0.014883
0.0155908
0.0163669
0.0172365
0.0182298
0.0193809
0.0207278
0.0223127
0.0241815
0.0263829
0.0289672
0.0319814
0.035463
0.0394115
0.0437056
0.0478466
0.0497267
0.0461386
0.038214
0.0292289
0.0212594
0.0154455
0.0120919
0.0108248
0.0108535
0.0109871
0.0107469
0.0103078
0.00975547
0.0091584
0.00854935
0.00794732
0.00736674
0.00682066
0.00631426
0.00584595
0.00540522
0.00497003
0.004538
0.004119
0.00369427
0.00325255
0.00279031
0.00232268
0.00187984
0.00150112
0.00118916
0.000882765
0.0117916
0.0120664
0.0123879
0.012805
0.0133375
0.013964
0.0146583
0.0154064
0.0162097
0.0170823
0.0180452
0.0191227
0.0203427
0.021735
0.0233314
0.0251648
0.0272685
0.0296746
0.0324098
0.03549
0.0388926
0.0425372
0.0461254
0.0478312
0.0449572
0.0384382
0.0310705
0.0248405
0.0206031
0.0184335
0.017905
0.0180682
0.0178376
0.0169595
0.0158132
0.0146102
0.0134488
0.0123508
0.011323
0.0103661
0.00948038
0.00866358
0.00791044
0.0072071
0.0065347
0.00587086
0.00522951
0.00459695
0.00396034
0.00332558
0.00271433
0.00217143
0.00173481
0.00140049
0.00110059
0.0120304
0.0122912
0.0126054
0.0130299
0.0135828
0.0142437
0.0149847
0.0157847
0.0166414
0.0175637
0.0185678
0.0196726
0.0208989
0.022268
0.0238016
0.0255207
0.0274438
0.0295859
0.0319551
0.0345506
0.0373598
0.0403635
0.0434063
0.0450763
0.0432117
0.0384669
0.0330506
0.0285635
0.0258285
0.0246762
0.0246023
0.0247212
0.0240981
0.022643
0.0208836
0.0191049
0.0174298
0.0158852
0.014467
0.0131653
0.0119695
0.0108715
0.00986052
0.00892042
0.00803221
0.0071672
0.006327
0.0055105
0.00470105
0.00390503
0.00315893
0.00251583
0.00203073
0.00168946
0.00141564
0.012232
0.0124816
0.0127857
0.0132066
0.0137604
0.0144364
0.0151976
0.0160203
0.0168972
0.017833
0.0188385
0.0199276
0.0211141
0.0224117
0.0238328
0.025387
0.0270803
0.0289134
0.0308835
0.0329822
0.0352015
0.0375813
0.0401243
0.0419112
0.0411795
0.0381777
0.0346092
0.0317857
0.0302328
0.0299193
0.0304059
0.0303268
0.0294445
0.0275585
0.0253154
0.0230714
0.0209724
0.01905
0.0172971
0.0156979
0.014235
0.0128929
0.0116581
0.0105126
0.00943678
0.00840822
0.00739913
0.00641758
0.005465
0.00454597
0.00370056
0.00299588
0.00247199
0.00212501
0.00186128
0.0123765
0.0126134
0.0129071
0.013316
0.0138642
0.0145375
0.0153003
0.0161248
0.0169983
0.0179213
0.0189006
0.0199446
0.0210614
0.0222578
0.0235378
0.0249018
0.0263467
0.0278651
0.0294434
0.0310648
0.0327265
0.034526
0.0366399
0.0384958
0.0387107
0.0372881
0.0353622
0.0339363
0.0334335
0.0337387
0.0343285
0.0344958
0.0337094
0.0314984
0.0289747
0.0263937
0.0239735
0.0217589
0.0197427
0.0179055
0.0162267
0.0146864
0.013268
0.0119527
0.0107204
0.00954698
0.00841153
0.0072994
0.00623082
0.00521408
0.0042957
0.00353857
0.00299632
0.00264742
0.00239604
0.0124589
0.0126816
0.0129617
0.0133554
0.0138885
0.0145503
0.0153033
0.0161151
0.0169697
0.0178638
0.0187997
0.0197819
0.0208132
0.0218945
0.0230235
0.0241954
0.0254004
0.0266231
0.0278417
0.0290374
0.0302207
0.0315125
0.0331619
0.0349618
0.0358648
0.0356347
0.0350585
0.0348211
0.0352284
0.0361633
0.0371708
0.0375127
0.0363332
0.0343759
0.0318695
0.0289869
0.026358
0.0239485
0.0217494
0.0197417
0.0179041
0.0162161
0.014658
0.0132126
0.0118596
0.0105755
0.00934033
0.0081359
0.00697739
0.00589252
0.0049247
0.00414181
0.00358924
0.00324094
0.00300665
0.012483
0.0126897
0.012952
0.0133262
0.0138391
0.0144819
0.0152182
0.01601
0.0168379
0.0176947
0.01858
0.0194939
0.0204356
0.0214019
0.0223874
0.0233822
0.0243714
0.0253352
0.0262512
0.0270979
0.0278831
0.0287294
0.0299189
0.0314762
0.032721
0.0333442
0.0337741
0.0345273
0.0357449
0.0372648
0.0386489
0.0392093
0.0383686
0.036164
0.0334127
0.0308242
0.028089
0.025585
0.0232854
0.0211767
0.0192395
0.0174549
0.0158036
0.0142685
0.0128312
0.0114708
0.0101655
0.00890566
0.00769419
0.00656215
0.00556864
0.00477705
0.00422205
0.00388198
0.00366177
0.0124358
0.0126298
0.0128748
0.0132264
0.0137181
0.0143416
0.0150573
0.0158277
0.0166276
0.0174465
0.0182811
0.0191289
0.0199872
0.0208504
0.02171
0.0225529
0.0233635
0.0241211
0.0248009
0.0253792
0.0258595
0.0263474
0.0271132
0.0283247
0.0296249
0.030729
0.0318486
0.0332749
0.0351384
0.0372318
0.039049
0.039897
0.0391873
0.0371916
0.0345928
0.0318132
0.0291613
0.0266985
0.0243494
0.0222001
0.0202192
0.0183872
0.0166874
0.0151039
0.0136193
0.0122152
0.0108723
0.00957972
0.00835267
0.00720266
0.00620492
0.00541605
0.00487423
0.00454091
0.00433387
0.0123157
0.0124953
0.0127244
0.0130579
0.0135309
0.0141349
0.0148354
0.0155872
0.0163621
0.0171472
0.0179366
0.0187275
0.0195154
0.0202929
0.0210504
0.0217757
0.0224522
0.0230591
0.0235721
0.023967
0.0242416
0.0244735
0.0248861
0.0257021
0.0268323
0.0280859
0.0295786
0.0314942
0.033817
0.0363046
0.0384925
0.0396395
0.0391496
0.0372919
0.0348291
0.03223
0.0296722
0.0272307
0.0249437
0.0228287
0.0208449
0.01901
0.0173041
0.0157102
0.0142131
0.0127977
0.0114473
0.0101525
0.00892748
0.00779997
0.00681136
0.0060425
0.00551269
0.00519471
0.00499873
0.0121425
0.012307
0.0125196
0.0128356
0.013292
0.0138832
0.0145699
0.0153069
0.0160619
0.0168197
0.017574
0.01832
0.0190529
0.0197659
0.0204502
0.0210934
0.0216803
0.0221917
0.0226053
0.0228976
0.0230601
0.0231409
0.0232969
0.0237448
0.0245709
0.0257631
0.0273541
0.0294598
0.0320514
0.0348445
0.0373023
0.0386751
0.038392
0.0367211
0.0344191
0.0319658
0.0295567
0.0272603
0.0250929
0.0230459
0.0211316
0.0193396
0.0176589
0.0160887
0.01461
0.0132125
0.0118823
0.0106114
0.00940992
0.008325
0.00737173
0.00662843
0.00612221
0.00581516
0.00563319
0.0119392
0.0120902
0.0122872
0.0125842
0.0130245
0.0136034
0.0142782
0.0150037
0.0157449
0.0164833
0.0172118
0.0179258
0.0186214
0.0192924
0.0199309
0.0205262
0.0210652
0.0215313
0.0219051
0.0221652
0.022298
0.0223219
0.0223315
0.0224881
0.0229636
0.0239078
0.0254087
0.0275157
0.0301591
0.0330511
0.0356373
0.0371636
0.037046
0.0355556
0.0334454
0.0311812
0.0289495
0.026814
0.0247932
0.0228873
0.0210823
0.0193698
0.0177735
0.0162747
0.0148259
0.0134605
0.0121748
0.0109504
0.00979744
0.00875277
0.00786459
0.00715629
0.00667345
0.00638553
0.00621227
0.01173
0.0118657
0.0120467
0.0123276
0.0127491
0.0133103
0.0139764
0.0146917
0.0154228
0.016149
0.0168615
0.0175569
0.0182314
0.0188804
0.0194979
0.0200751
0.0206017
0.0210644
0.0214476
0.0217319
0.0219
0.0219454
0.0219011
0.0218679
0.0220297
0.0226411
0.0239006
0.0258517
0.0283809
0.0311885
0.0337413
0.0352803
0.0352564
0.0339276
0.0320151
0.0299626
0.0279343
0.0259879
0.0241405
0.0223911
0.0207288
0.0191463
0.0176333
0.0161922
0.014828
0.0135499
0.0123311
0.0111681
0.0100756
0.00908952
0.0082433
0.00759632
0.00715394
0.00687858
0.00671474
0.0115141
0.0116394
0.0118052
0.0120679
0.0124729
0.0130202
0.0136728
0.0143813
0.0151057
0.0158251
0.01653
0.017217
0.0178838
0.0185275
0.0191438
0.0197268
0.0202689
0.0207603
0.0211887
0.0215376
0.0217862
0.0219101
0.0218959
0.0217806
0.0217207
0.0220019
0.0228924
0.0245146
0.0267816
0.0293779
0.0317448
0.033172
0.0331506
0.0319432
0.0302333
0.0284101
0.0266042
0.024863
0.0232041
0.021624
0.0201162
0.0186735
0.0172939
0.0159732
0.0147096
0.0134973
0.0123429
0.0112457
0.0101327
0.00933497
0.00854882
0.00795184
0.00754055
0.00728164
0.00712644
0.011311
0.0114226
0.0115737
0.0118214
0.0122086
0.0127422
0.0133825
0.014082
0.0148009
0.0155162
0.0162183
0.0169041
0.0175726
0.0182226
0.0188521
0.0194575
0.0200341
0.0205756
0.0210729
0.0215122
0.0218709
0.0221074
0.0221774
0.0220558
0.0218545
0.0218622
0.0223851
0.0235933
0.0254441
0.0276488
0.029694
0.0309035
0.0308189
0.0297105
0.0282007
0.0266149
0.0250454
0.0235249
0.0220593
0.0206533
0.0193052
0.0180099
0.0167631
0.0155627
0.0144101
0.0133067
0.0122505
0.0112503
0.0103488
0.00950623
0.00852334
0.00819837
0.00786148
0.00758324
0.00743089
0.0111339
0.0112341
0.0113742
0.0116042
0.011974
0.0124868
0.013111
0.0137985
0.0145098
0.0152209
0.0159219
0.0166101
0.0172855
0.0179487
0.0185994
0.0192366
0.0198583
0.0204611
0.0210389
0.0215799
0.0220599
0.0224296
0.0226108
0.0225451
0.0222879
0.0220933
0.0222797
0.0230453
0.0243914
0.0260917
0.0276889
0.0285745
0.028373
0.0273428
0.0260217
0.0246701
0.0233444
0.0220431
0.0207752
0.0195458
0.0183564
0.0172064
0.0160943
0.0150183
0.0139792
0.0129783
0.0120179
0.0111038
0.0102472
0.00949761
0.00893909
0.00849554
0.00807222
0.00769225
0.00762023
0.0109729
0.011064
0.0111935
0.0114105
0.0117603
0.0122514
0.0128559
0.013528
0.0142281
0.0149329
0.015632
0.0163229
0.0170066
0.0176849
0.0183596
0.0190315
0.019701
0.0203673
0.0210267
0.0216695
0.0222692
0.0227689
0.0230743
0.0230833
0.0228135
0.0224783
0.0223695
0.0227144
0.0235584
0.0247164
0.0257915
0.0262923
0.0259249
0.0249397
0.0237927
0.0226748
0.0215762
0.0204881
0.0194125
0.0183557
0.0173218
0.0163129
0.01533
0.0143733
0.0134448
0.0125472
0.0116829
0.0108585
0.0100879
0.00938734
0.00878187
0.00832052
0.00802016
0.00784356
0.00771199
0.0108121
0.0108942
0.011016
0.0112258
0.011559
0.0120289
0.0126094
0.0132616
0.0139473
0.0146424
0.0153366
0.0160279
0.0167179
0.0174095
0.0181059
0.0188096
0.0195231
0.0202474
0.020981
0.0217147