/*--------------------------------*- C++ -*----------------------------------*\
  =========                 |
  \\      /  F ield         | OpenFOAM: The Open Source CFD Toolbox
   \\    /   O peration     | Website:  https://openfoam.org
    \\  /    A nd           | Version:  7
     \\/     M anipulation  |
\*---------------------------------------------------------------------------*/
FoamFile
{
    version     2.0;
    format      ascii;
    class       surfaceScalarField;
    location    "85";
    object      phi;
}
// * * * * * * * * * * * * * * * * * * * * * * * * * * * * * * * * * * * * * //

dimensions      [0 3 -1 0 0 0 0];

internalField   nonuniform List<scalar> 
34768
(
8.19201e-05
0.000970002
-0.000149632
-4.45913e-05
2.59333e-05
0.00092095
-1.58444e-05
1.0877e-05
0.000907461
-8.27966e-06
6.73072e-06
0.000904244
-5.35424e-06
4.62152e-06
0.000903529
-4.2965e-06
3.91691e-06
0.000903177
-3.62975e-06
3.51886e-06
0.00090311
-3.45452e-06
3.43705e-06
0.000903118
-3.14421e-06
3.08389e-06
0.000903262
-3.23623e-06
3.01363e-06
0.000903326
-3.09657e-06
3.00049e-06
0.000903301
-3.0051e-06
3.22859e-06
0.000903283
-3.04962e-06
2.98836e-06
0.00090357
-3.22212e-06
3.17321e-06
0.000903559
-3.21759e-06
3.37923e-06
0.00090355
-3.33252e-06
3.30334e-06
0.000903843
-3.56475e-06
3.54397e-06
0.000903736
-3.51257e-06
3.69948e-06
0.000903831
-3.67502e-06
3.66921e-06
0.000903926
-3.85107e-06
3.75201e-06
0.000904121
-4.14009e-06
4.74742e-06
0.000904117
-5.54102e-06
6.35414e-06
0.000905213
-5.20317e-06
4.36174e-06
0.00090489
-3.59532e-06
4.0685e-06
0.000904628
-5.32577e-06
-3.77021e-07
0.000909306
-6.84555e-07
1.26429e-06
0.000908655
-1.15775e-06
8.19272e-07
0.000909465
-5.16013e-07
-2.90988e-08
0.000909674
5.96415e-07
-8.76374e-07
0.000909408
1.24178e-06
-1.35117e-06
0.00090924
1.38808e-06
-1.42987e-06
0.000909183
1.43943e-06
-1.4147e-06
0.000909107
1.40755e-06
-1.38708e-06
0.000909112
1.33418e-06
-1.31883e-06
0.000909127
1.3206e-06
-1.31093e-06
0.000909132
1.31812e-06
-1.31477e-06
0.000909138
1.32767e-06
-1.33107e-06
0.000909144
1.35027e-06
-1.46095e-06
0.00090925
1.78672e-06
-1.20533e-06
0.000909957
7.38685e-07
-5.65759e-07
0.000910364
5.06597e-07
-4.42458e-07
0.000910371
4.91709e-07
-5.37486e-07
0.00091028
5.96416e-07
-6.53729e-07
0.00091029
7.24491e-07
-6.95872e-07
0.000910102
7.8152e-07
-8.70768e-07
0.000910118
9.76124e-07
-1.0891e-06
0.00091004
1.22149e-06
-1.36744e-06
0.000909971
1.53868e-06
-1.7326e-06
0.000910018
1.96193e-06
-2.32883e-06
0.000910089
2.54919e-06
-2.93242e-06
0.000910104
3.40084e-06
-4.07474e-06
0.000910293
4.68453e-06
-5.55368e-06
0.000910487
6.57602e-06
-7.68631e-06
0.000910627
8.71451e-06
-6.60815e-06
0.000907407
-4.11882e-06
-2.68715e-05
0.0009405
-0.000827624
0.000143781
0.000703639
-1.98701e-05
-0.000972485
-0.000148758
0.000116951
0.0010042
-0.000924966
-9.03335e-05
7.09517e-05
0.000944257
-0.000911497
-5.69017e-05
4.64739e-05
0.000921837
-0.000907094
-3.85744e-05
3.25739e-05
0.000913009
-0.000905374
-2.79389e-05
2.42324e-05
0.000908997
-0.000904427
-2.07816e-05
1.86419e-05
0.000906486
-0.000903896
-1.64541e-05
1.46629e-05
0.00090561
-0.000903769
-1.30652e-05
1.18511e-05
0.00090491
-0.000903653
-1.08387e-05
9.84591e-06
0.000904576
-0.000903702
-8.89918e-06
8.33552e-06
0.0009042
-0.000903591
-7.58082e-06
6.98716e-06
0.000904123
-0.000903506
-6.57852e-06
6.01828e-06
0.000904009
-0.000903737
-5.52421e-06
5.27215e-06
0.000903938
-0.00090368
-4.97315e-06
4.61365e-06
0.000903995
-0.000903632
-4.5952e-06
4.31675e-06
0.000903872
-0.000903789
-4.06987e-06
3.96599e-06
0.000903864
-0.000903751
-3.98325e-06
3.8479e-06
0.000903867
-0.000903816
-3.82477e-06
3.75506e-06
0.00090388
-0.000903885
-3.88645e-06
3.97804e-06
0.000903801
-0.000904157
-3.76068e-06
3.91097e-06
0.00090403
-0.000903934
-4.23972e-06
3.64381e-06
0.000904568
-0.000906992
-3.79495e-06
6.75855e-06
0.000904084
-0.000903339
-5.62382e-06
1.7264e-07
0.000908863
-0.000907867
-1.35989e-06
1.52328e-06
0.000907795
-0.000908342
-1.45953e-06
1.56901e-06
0.000908342
-0.000909633
-1.5779e-06
1.98432e-06
0.000909354
-0.000910136
-2.11153e-06
1.86413e-06
0.000910526
-0.000909575
-1.49317e-06
1.71655e-06
0.00090951
-0.000909392
-1.90576e-06
1.61382e-06
0.000909856
-0.000909186
-1.4386e-06
1.56355e-06
0.000909246
-0.000909066
-1.63399e-06
1.84576e-06
0.000909049
-0.000909089
-1.89496e-06
2.06643e-06
0.000909123
-0.000909146
-2.11736e-06
2.24074e-06
0.000909235
-0.000909186
-2.08845e-06
2.25856e-06
0.000909235
-0.000909227
-2.14816e-06
2.15932e-06
0.00090944
-0.000909271
-1.98772e-06
1.93625e-06
0.000909549
-0.000909716
-1.59997e-06
1.38152e-06
0.000910163
-0.000909963
-5.78023e-07
2.88679e-07
0.000910481
-0.000910312
-2.1325e-07
1.47097e-07
0.000910606
-0.000910565
5.22327e-09
-1.54734e-07
0.000910939
-0.000910623
5.91981e-07
-9.35399e-07
0.000911187
-0.00091059
1.46901e-06
-1.92093e-06
0.000911259
-0.000910572
2.56924e-06
-3.25296e-06
0.000911467
-0.000910576
4.04345e-06
-4.89322e-06
0.000911631
-0.000910615
5.86859e-06
-7.03789e-06
0.000911983
-0.000910809
8.2639e-06
-9.6351e-06
0.000912371
-0.000910992
1.12162e-05
-1.31226e-05
0.000913082
-0.000911425
1.52289e-05
-1.76902e-05
0.000914063
-0.000912018
2.06099e-05
-2.42094e-05
0.000915786
-0.000913181
2.85572e-05
-3.3796e-05
0.000918582
-0.000915204
4.04533e-05
-4.87318e-05
0.000923638
-0.000918967
5.98202e-05
-7.41255e-05
0.000933416
-0.000924725
9.38444e-05
-0.00012419
0.00095519
-0.000978589
0.000165406
-0.000143454
0.00095672
-0.000599472
8.48971e-05
0.000518664
-4.17512e-06
-0.00102169
-0.000134352
0.00013172
0.00102423
-0.000962514
-0.000111969
9.37306e-05
0.000980664
-0.000932941
-7.97251e-05
6.84298e-05
0.000944148
-0.00092016
-5.92572e-05
5.15514e-05
0.000927778
-0.000913889
-4.49997e-05
3.95956e-05
0.000919205
-0.00091031
-3.49407e-05
3.09109e-05
0.000914253
-0.000907789
-2.7471e-05
2.38465e-05
0.000911329
-0.000906766
-2.13471e-05
1.91348e-05
0.000908896
-0.000905898
-1.70276e-05
1.51218e-05
0.000907724
-0.000905409
-1.34487e-05
1.19214e-05
0.000906859
-0.000904894
-1.07761e-05
9.44017e-06
0.000906155
-0.000904794
-8.25069e-06
7.44988e-06
0.000905524
-0.000904469
-6.36859e-06
5.56206e-06
0.000905209
-0.000904296
-4.95781e-06
4.32082e-06
0.000904872
-0.000904258
-3.67012e-06
3.28445e-06
0.00090459
-0.000903946
-2.87343e-06
2.52824e-06
0.000904247
-0.000903953
-2.14523e-06
1.93111e-06
0.000904134
-0.000903876
-1.76894e-06
1.78076e-06
0.000903843
-0.000903913
-1.43198e-06
1.46316e-06
0.000903874
-0.000903664
-1.72256e-06
1.16856e-06
0.000904226
-0.000904729
-8.30404e-07
1.9835e-06
0.000903599
-0.000906027
9.08517e-08
-1.65719e-06
0.000907634
-0.000907917
1.16433e-06
-7.3455e-07
0.000907545
-0.000907804
1.69277e-07
-5.96761e-08
0.000907771
-0.000908091
-7.87642e-09
9.4243e-08
0.000908097
-0.000908676
-4.29089e-07
9.61851e-07
0.000908253
-0.000910731
-1.47739e-06
1.43585e-06
0.000910898
-0.000909307
-1.27907e-06
1.61461e-06
0.000909114
-0.000910016
-1.95962e-06
2.2792e-06
0.000909852
-0.000909068
-2.24315e-06
2.48816e-06
0.000908992
-0.000908836
-2.75131e-06
3.13281e-06
0.000908634
-0.000908965
-3.34029e-06
3.64357e-06
0.000908851
-0.000909063
-3.81123e-06
3.92187e-06
0.00090915
-0.000909346
-4.03872e-06
4.14623e-06
0.000909442
-0.00090954
-4.05289e-06
4.0475e-06
0.000909754
-0.000909744
-3.83704e-06
3.61199e-06
0.000910182
-0.000910957
-2.77816e-06
1.526e-06
0.000912424
-0.00091078
-1.46129e-06
1.47388e-06
0.000910983
-0.000910917
-9.72573e-07
5.41607e-07
0.000911561
-0.000911371
5.32924e-09
-5.91301e-07
0.000912169
-0.000911753
1.29795e-06
-2.05646e-06
0.00091272
-0.00091208
3.04315e-06
-3.99907e-06
0.00091324
-0.000912474
5.19605e-06
-6.38724e-06
0.000913864
-0.000912971
7.94024e-06
-9.42223e-06
0.000914646
-0.000913526
1.11981e-05
-1.31548e-05
0.00091567
-0.00091443
1.53561e-05
-1.78128e-05
0.000917067
-0.000915629
2.06951e-05
-2.3743e-05
0.00091885
-0.000917581
2.74455e-05
-3.14853e-05
0.000921786
-0.000920549
3.63844e-05
-4.19941e-05
0.000926317
-0.00092562
4.86945e-05
-5.65397e-05
0.000933615
-0.000934334
6.59071e-05
-7.72091e-05
0.000945779
-0.000950381
9.10392e-05
-0.000108127
0.0009676
-0.000985968
0.000130253
-0.000154782
0.0010106
-0.000907075
0.000157617
-9.1672e-05
0.000841214
-0.000458004
4.89699e-05
0.000411751
-2.81155e-06
-0.00101351
-0.00010073
0.000120333
0.000993812
-0.000997153
-0.000114499
0.000101001
0.00101056
-0.000955184
-8.82644e-05
7.76797e-05
0.000965679
-0.000935691
-6.86594e-05
6.09089e-05
0.000943351
-0.000924994
-5.41739e-05
4.8206e-05
0.000930871
-0.000918639
-4.29729e-05
3.82874e-05
0.000923233
-0.00091461
-3.41549e-05
3.04218e-05
0.000918251
-0.000911947
-2.72166e-05
2.42049e-05
0.000914868
-0.000909723
-2.14268e-05
1.84666e-05
0.000912593
-0.00090854
-1.64827e-05
1.43657e-05
0.000910568
-0.000907607
-1.23685e-05
1.08075e-05
0.00090908
-0.000906706
-9.23166e-06
7.7665e-06
0.000908087
-0.000906063
-6.46099e-06
5.25159e-06
0.000907191
-0.000905727
-4.08294e-06
3.20312e-06
0.000906533
-0.000905065
-2.44834e-06
1.67812e-06
0.000905767
-0.000904756
-9.20051e-07
2.47918e-07
0.00090537
-0.000904385
1.2322e-07
-5.04919e-07
0.000904719
-0.000904146
8.96357e-07
-1.19262e-06
0.000904407
-0.000903733
1.11063e-06
-1.82786e-06
0.000904428
-0.000904447
2.17491e-06
-1.21695e-06
0.000903482
-0.000905705
3.42232e-06
-5.07559e-06
0.000907367
-0.000907077
4.62098e-06
-4.45552e-06
0.000906938
-0.000906993
3.93168e-06
-3.43231e-06
0.000906537
-0.000907179
3.0477e-06
-2.22367e-06
0.000906416
-0.000908382
1.57619e-06
-1.48543e-06
0.000908369
-0.000907413
8.26912e-07
-5.94219e-08
0.000906741
-0.000910669
-4.93865e-07
9.13963e-07
0.00091036
-0.000908621
-1.04649e-06
1.67488e-06
0.00090812
-0.000908876
-2.40657e-06
3.2751e-06
0.000908148
-0.000909068
-3.2188e-06
3.58977e-06
0.000908852
-0.000908228
-4.05069e-06
4.63196e-06
0.000907812
-0.000908542
-5.03772e-06
5.50758e-06
0.000908247
-0.000908972
-5.69719e-06
6.11488e-06
0.000908737
-0.0009094
-6.22162e-06
6.38225e-06
0.000909429
-0.000909857
-6.32324e-06
6.41393e-06
0.00090996
-0.000910437
-6.07958e-06
5.69137e-06
0.000911023
-0.000913538
-4.6738e-06
4.29866e-06
0.000914113
-0.000911464
-3.69199e-06
3.12257e-06
0.000912234
-0.000912219
-2.41894e-06
1.74552e-06
0.000913091
-0.000912913
-8.35171e-07
-1.54751e-07
0.0009141
-0.00091377
1.28608e-06
-2.30936e-06
0.000914987
-0.000914522
3.68321e-06
-5.06831e-06
0.000916096
-0.000915518
6.81823e-06
-8.40443e-06
0.000917288
-0.000916631
1.0478e-05
-1.2525e-05
0.000918856
-0.000917972
1.48911e-05
-1.7483e-05
0.000920736
-0.000919813
2.03429e-05
-2.34987e-05
0.000923134
-0.000922531
2.69955e-05
-3.08867e-05
0.00092658
-0.000926482
3.52232e-05
-4.00915e-05
0.000931501
-0.000932445
4.56571e-05
-5.174e-05
0.000938671
-0.0009417
5.88377e-05
-6.68191e-05
0.000949817
-0.000956966
7.60119e-05
-8.62714e-05
0.000967353
-0.000983439
9.775e-05
-0.000111877
0.000997683
-0.00102555
0.000126729
-0.000130851
0.00102977
-0.000772187
0.000102349
-3.93762e-05
0.000709301
-0.000375903
2.96575e-05
0.000347791
-1.65456e-06
-0.000968979
-7.18412e-05
9.93692e-05
0.000941345
-0.00102092
-0.000104895
9.80645e-05
0.00102765
-0.0009755
-8.82627e-05
7.87856e-05
0.000984885
-0.000950726
-7.06454e-05
6.34869e-05
0.00095779
-0.000936828
-5.7084e-05
5.13275e-05
0.000942489
-0.000927957
-4.6132e-05
4.13443e-05
0.000932647
-0.000922102
-3.70112e-05
3.30998e-05
0.000925915
-0.000917931
-2.94624e-05
2.60777e-05
0.000921217
-0.00091501
-2.31096e-05
2.03433e-05
0.000917677
-0.000912846
-1.78446e-05
1.54088e-05
0.000915183
-0.000911091
-1.27999e-05
1.06316e-05
0.000913161
-0.000909682
-8.86992e-06
7.12615e-06
0.000911332
-0.000908713
-5.26243e-06
3.90966e-06
0.000909975
-0.000907402
-2.62331e-06
1.23847e-06
0.000908703
-0.000906606
-1.06384e-07
-1.02329e-06
0.000907659
-0.000905988
1.90936e-06
-2.48788e-06
0.0009065
-0.000905324
3.4355e-06
-3.86923e-06
0.000905701
-0.000904302
4.07862e-06
-5.26883e-06
0.000905449
-0.000904816
5.73995e-06
-4.88472e-06
0.00090393
-0.000905694
7.3533e-06
-9.31937e-06
0.000907647
-0.000906779
8.84614e-06
-8.82227e-06
0.000906757
-0.000906418
8.32543e-06
-7.70716e-06
0.00090582
-0.000906008
7.22333e-06
-6.4247e-06
0.000905246
-0.000905659
5.64134e-06
-4.83061e-06
0.000904904
-0.000907642
4.04231e-06
-3.29131e-06
0.000906964
-0.000905909
2.28587e-06
-1.18434e-06
0.000904898
-0.00090986
3.2491e-07
3.52363e-07
0.000909291
-0.000907416
-9.73715e-07
1.7906e-06
0.000906724
-0.000907405
-2.75017e-06
3.69654e-06
0.000906597
-0.0009083
-4.22517e-06
4.99224e-06
0.000907686
-0.000907178
-5.73786e-06
6.57141e-06
0.000906508
-0.000907756
-7.20459e-06
7.86446e-06
0.00090727
-0.000908432
-8.33616e-06
8.79645e-06
0.000908153
-0.000909215
-9.01571e-06
9.25644e-06
0.000909163
-0.00091005
-9.24751e-06
9.25603e-06
0.000910234
-0.000912325
-8.81018e-06
7.77639e-06
0.000913555
-0.000913638
-6.88829e-06
6.90858e-06
0.000913814
-0.000912782
-6.2702e-06
5.63875e-06
0.00091361
-0.000913972
-4.64901e-06
3.7616e-06
0.000915053
-0.000915121
-2.61566e-06
1.36266e-06
0.000916566
-0.000916467
4.985e-08
-1.48041e-06
0.000918084
-0.000917758
3.17552e-06
-5.00584e-06
0.000919769
-0.000919369
7.00988e-06
-9.07076e-06
0.000921606
-0.00092121
1.15235e-05
-1.39624e-05
0.000923817
-0.000923537
1.67169e-05
-1.95978e-05
0.00092658
-0.000926488
2.28311e-05
-2.6449e-05
0.000930261
-0.000930737
3.02633e-05
-3.4323e-05
0.000934944
-0.000936448
3.88499e-05
-4.381e-05
0.000941547
-0.000944876
4.93194e-05
-5.52696e-05
0.000950957
-0.000957512
6.13625e-05
-6.76189e-05
0.000963893
-0.000976439
7.54737e-05
-8.41053e-05
0.000985187
-0.00100987
9.39219e-05
-0.000103846
0.0010199
-0.00102503
0.000109026
-9.78713e-05
0.00101397
-0.000655471
6.22831e-05
-1.75995e-05
0.000610875
-0.000325381
1.9121e-05
0.000307182
-1.04446e-06
-0.000913154
-5.12991e-05
7.87609e-05
0.000885576
-0.00103122
-9.10212e-05
9.0247e-05
0.0010319
-0.000993109
-8.37203e-05
7.61253e-05
0.00100061
-0.000964626
-6.91445e-05
6.28123e-05
0.00097086
-0.000948508
-5.70788e-05
5.20453e-05
0.000953441
-0.00093731
-4.67001e-05
4.16405e-05
0.000942267
-0.000929898
-3.68345e-05
3.27796e-05
0.000933849
-0.000924531
-2.90355e-05
2.54836e-05
0.000927977
-0.000920611
-2.23095e-05
1.92971e-05
0.000923517
-0.000917602
-1.65321e-05
1.3907e-05
0.000920121
-0.00091532
-1.16076e-05
9.33046e-06
0.000917491
-0.000913367
-7.46288e-06
5.30435e-06
0.000915423
-0.000911509
-3.23733e-06
1.38261e-06
0.000913266
-0.000910158
2.90414e-07
-1.85224e-06
0.000911629
-0.000908742
3.24044e-06
-4.41092e-06
0.000909829
-0.000907616
5.71562e-06
-6.69344e-06
0.00090852
-0.000906048
7.20822e-06
-8.79123e-06
0.000907568
-0.000906022
9.70736e-06
-9.07482e-06
0.00090534
-0.00090657
1.21397e-05
-1.42424e-05
0.000908638
-0.000907097
1.38713e-05
-1.41184e-05
0.000907326
-0.000906137
1.36339e-05
-1.32744e-05
0.000905776
-0.000905366
1.28105e-05
-1.19409e-05
0.000904514
-0.000904345
1.10775e-05
-1.01282e-05
0.00090343
-0.000903861
9.06118e-06
-7.9831e-06
0.000902838
-0.000905987
7.188e-06
-5.72089e-06
0.000904593
-0.000903605
4.2926e-06
-2.75797e-06
0.000902164
-0.000908462
1.4174e-06
-2.16178e-07
0.000907373
-0.000905578
-7.94722e-07
2.24741e-06
0.000904256
-0.000905514
-3.53691e-06
5.10264e-06
0.000904093
-0.00090685
-6.49815e-06
7.15926e-06
0.000906348
-0.000905591
-8.06321e-06
9.19777e-06
0.000904627
-0.000906554
-1.0115e-05
1.10407e-05
0.00090581
-0.000907787
-1.1617e-05
1.23587e-05
0.000907234
-0.000908956
-1.27185e-05
1.3167e-05
0.000908702
-0.000910399
-1.31262e-05
1.28704e-05
0.000910853
-0.000915194
-1.15235e-05
1.03624e-05
0.000916556
-0.000913838
-1.08014e-05
1.07221e-05
0.000914118
-0.000914614
-9.85679e-06
9.07336e-06
0.000915595
-0.000916237
-8.00823e-06
6.82203e-06
0.000917618
-0.000917933
-5.35921e-06
3.97201e-06
0.00091951
-0.000919745
-2.31169e-06
6.19053e-07
0.000921622
-0.000921737
1.44691e-06
-3.45437e-06
0.000923922
-0.000923906
5.73557e-06
-8.17751e-06
0.000926518
-0.000926589
1.07986e-05
-1.34998e-05
0.000929453
-0.000929774
1.65956e-05
-1.96976e-05
0.000933031
-0.000933845
2.32141e-05
-2.67688e-05
0.000937546
-0.000939106
3.06583e-05
-3.48333e-05
0.000943419
-0.0009464
3.92696e-05
-4.33321e-05
0.000950592
-0.000955722
4.75921e-05
-5.29238e-05
0.000961175
-0.000970632
5.88128e-05
-6.50455e-05
0.000976979
-0.000993202
7.17046e-05
-7.89614e-05
0.00100057
-0.0010276
8.64703e-05
-9.19397e-05
0.00103317
-0.00099879
8.96571e-05
-7.20047e-05
0.000981224
-0.000574346
4.01267e-05
-1.00544e-05
0.000544359
-0.000292125
1.32324e-05
0.000279475
-7.11073e-07
-0.000859219
-3.75744e-05
6.20896e-05
0.000834581
-0.00103021
-7.7026e-05
8.04858e-05
0.00102665
-0.00100743
-7.70923e-05
7.11378e-05
0.00101329
-0.0009767
-6.50355e-05
5.92e-05
0.000982433
-0.000958517
-5.40663e-05
4.91101e-05
0.000963367
-0.000946635
-4.44838e-05
4.01497e-05
0.000950861
-0.000938337
-3.60895e-05
3.21801e-05
0.000942136
-0.000932325
-2.85204e-05
2.5199e-05
0.000935535
-0.00092664
-2.10787e-05
1.70805e-05
0.000930524
-0.000922781
-1.28942e-05
1.00535e-05
0.000925509
-0.000919617
-7.42114e-06
4.89268e-06
0.000922033
-0.000917135
-2.66585e-06
5.3972e-07
0.000919152
-0.000915185
1.19161e-06
-2.71726e-06
0.000916606
-0.000913149
3.95288e-06
-5.68358e-06
0.000914781
-0.000911451
7.73233e-06
-9.35094e-06
0.000912978
-0.000909229
1.04762e-05
-1.25678e-05
0.000911239
-0.000908653
1.39569e-05
-1.36771e-05
0.000908303
-0.000908649
1.72845e-05
-1.88741e-05
0.000910182
-0.000908863
1.92613e-05
-2.02299e-05
0.000909789
-0.000906887
2.02044e-05
-2.00737e-05
0.000906731
-0.00090521
1.97756e-05
-1.91458e-05
0.000904572
-0.000903526
1.81592e-05
-1.72974e-05
0.000902677
-0.000902238
1.61389e-05
-1.47673e-05
0.000900899
-0.000902032
1.33045e-05
-1.18841e-05
0.000900667
-0.000902231
1.08544e-05
-8.65002e-06
0.000900103
-0.000900297
6.56994e-06
-4.4562e-06
0.000898281
-0.000905942
2.53737e-06
-7.64562e-07
0.000904287
-0.000902625
-9.12835e-07
2.95048e-06
0.000900726
-0.000901704
-4.89394e-06
7.03567e-06
0.000899717
-0.000906588
-9.19035e-06
1.00732e-05
0.000905875
-0.000903498
-1.12974e-05
1.28241e-05
0.000902154
-0.000904813
-1.41015e-05
1.53466e-05
0.000903761
-0.000906568
-1.62777e-05
1.7144e-05
0.000905902
-0.000908479
-1.76746e-05
1.81523e-05
0.000908207
-0.00091188
-1.82881e-05
1.78746e-05
0.000912501
-0.000916237
-1.66284e-05
1.68235e-05
0.00091625
-0.000914644
-1.63861e-05
1.58018e-05
0.000915434
-0.000916555
-1.47982e-05
1.37535e-05
0.000917801
-0.0009189
-1.25033e-05
1.11141e-05
0.000920485
-0.000921208
-9.5337e-06
7.81527e-06
0.000923116
-0.000923632
-5.91755e-06
3.87973e-06
0.000925852
-0.000926145
-1.67237e-06
-6.81215e-07
0.000928673
-0.000929063
3.19719e-06
-5.76425e-06
0.000931796
-0.000932339
8.59165e-06
-1.15854e-05
0.000935489
-0.000936285
1.4738e-05
-1.80727e-05
0.000939767
-0.000941203
2.15687e-05
-2.52656e-05
0.000945037
-0.000947221
2.80072e-05
-3.1378e-05
0.00095072
-0.000954989
3.58448e-05
-4.02428e-05
0.000959508
-0.000966539
4.50379e-05
-4.97889e-05
0.000971402
-0.000982771
5.51776e-05
-6.05797e-05
0.000988278
-0.00100725
6.64801e-05
-7.24104e-05
0.00101328
-0.00103659
7.77894e-05
-7.95283e-05
0.00103842
-0.000962708
7.2878e-05
-5.41236e-05
0.000944035
-0.000519379
2.79204e-05
-6.82013e-06
0.00049836
-0.000268771
9.65694e-06
0.00025948
-5.0668e-07
-0.000811815
-2.82467e-05
4.9211e-05
0.000790716
-0.00102162
-6.43923e-05
7.03781e-05
0.00101553
-0.00101849
-6.93332e-05
6.49686e-05
0.00102275
-0.000987839
-5.9697e-05
5.4345e-05
0.000993086
-0.000968094
-4.9467e-05
4.48059e-05
0.000972646
-0.000955136
-4.04172e-05
3.61499e-05
0.000959292
-0.000945836
-3.22046e-05
2.82447e-05
0.000949682
-0.000938906
-2.46942e-05
2.10145e-05
0.000942469
-0.000933586
-1.78392e-05
1.45316e-05
0.000936775
-0.000929506
-1.16196e-05
8.78217e-06
0.000932226
-0.000926038
-6.12977e-06
3.45176e-06
0.000928598
-0.000921329
1.65894e-07
-3.90069e-06
0.000924949
-0.00091839
7.44426e-06
-1.09901e-05
0.000921824
-0.000915859
1.39304e-05
-1.58405e-05
0.000917663
-0.000913843
1.72459e-05
-1.79144e-05
0.000914411
-0.000913773
1.72607e-05
-1.49687e-05
0.00091139
-0.000912238
2.27731e-05
-2.5007e-05
0.000914391
-0.000910756
2.59245e-05
-2.69088e-05
0.000911673
-0.000909704
2.67455e-05
-2.6654e-05
0.000909559
-0.000906722
2.75078e-05
-2.76926e-05
0.000906872
-0.000903808
2.72476e-05
-2.65289e-05
0.000903073
-0.000901468
2.54799e-05
-2.40985e-05
0.000900092
-0.000899283
2.2544e-05
-2.07217e-05
0.000897488
-0.000898849
1.87656e-05
-1.65872e-05
0.000896723
-0.00089794
1.45374e-05
-1.20062e-05
0.000895485
-0.000895866
9.35676e-06
-6.51935e-06
0.000893129
-0.000902193
3.83166e-06
-1.26881e-06
0.000899754
-0.000898372
-1.17356e-06
4.00484e-06
0.000895689
-0.000897401
-6.74399e-06
9.50054e-06
0.00089481
-0.000904291
-1.18434e-05
1.3738e-05
0.00090258
-0.000900429
-1.57588e-05
1.78396e-05
0.000898545
-0.000902414
-1.95582e-05
2.12075e-05
0.000900972
-0.000904999
-2.24478e-05
2.36778e-05
0.000903983
-0.000907754
-2.42978e-05
2.4715e-05
0.000907555
-0.00091369
-2.36363e-05
2.16682e-05
0.000915877
-0.000915791
-2.27791e-05
2.35924e-05
0.000915196
-0.000916187
-2.31371e-05
2.23069e-05
0.00091723
-0.000919041
-2.11246e-05
1.98766e-05
0.000920494
-0.000921985
-1.84057e-05
1.68787e-05
0.000923709
-0.000924852
-1.50514e-05
1.29743e-05
0.000927117
-0.000927905
-1.09213e-05
8.62405e-06
0.000930381
-0.000931134
-6.0651e-06
3.57026e-06
0.000933798
-0.000934658
-7.24239e-07
-2.05885e-06
0.0009376
-0.000938546
5.17963e-06
-8.23947e-06
0.000941754
-0.00094323
1.13186e-05
-1.35193e-05
0.000945569
-0.000947685
1.68657e-05
-2.0472e-05
0.000951421
-0.000954718
2.42917e-05
-2.8284e-05
0.000958831
-0.000963956
3.23846e-05
-3.65608e-05
0.000968243
-0.000976232
4.10673e-05
-4.56691e-05
0.000980937
-0.000993567
5.05219e-05
-5.56344e-05
0.000998776
-0.00101884
6.14547e-05
-6.65663e-05
0.00102404
-0.00103883
7.0052e-05
-6.9681e-05
0.00103854
-0.000925705
6.16666e-05
-4.40642e-05
0.000908179
-0.000480133
2.23443e-05
-5.94019e-06
0.000463803
-0.000251539
7.22829e-06
0.00024453
-3.70388e-07
-0.000771547
-2.16671e-05
3.90731e-05
0.000753998
-0.00100835
-5.33937e-05
6.08042e-05
0.00100083
-0.00102631
-6.18855e-05
5.88229e-05
0.00102927
-0.000998053
-5.43374e-05
4.93912e-05
0.00100289
-0.000977566
-4.47631e-05
4.0611e-05
0.000981608
-0.000963426
-3.61481e-05
3.18724e-05
0.000967588
-0.000953447
-2.76659e-05
2.35068e-05
0.000957489
-0.000945996
-1.91913e-05
1.55489e-05
0.00094952
-0.000939966
-1.20631e-05
8.6144e-06
0.000943293
-0.00093508
-5.429e-06
2.28457e-06
0.000938102
-0.000931112
5.9583e-07
-3.42949e-06
0.000933823
-0.000927932
5.88926e-06
-8.08333e-06
0.000930005
-0.000924123
1.10271e-05
-1.41996e-05
0.000927176
-0.000920681
1.60526e-05
-1.84186e-05
0.000922931
-0.000918614
2.19049e-05
-2.34165e-05
0.000920014
-0.000913088
2.35272e-05
-3.33216e-05
0.000922778
-0.000914882
3.37423e-05
-3.54132e-05
0.000916458
-0.000912055
3.60016e-05
-3.65648e-05
0.000912535
-0.000909546
3.6844e-05
-3.64444e-05
0.000909078
-0.00090707
3.55443e-05
-3.62775e-05
0.000907753
-0.000902002
3.66876e-05
-3.60538e-05
0.000901337
-0.000898543
3.47081e-05
-3.29592e-05
0.000896787
-0.000895391
3.09547e-05
-2.85223e-05
0.000892977
-0.000894219
2.58918e-05
-2.29543e-05
0.000891328
-0.000892569
2.00453e-05
-1.66128e-05
0.000889211
-0.000889834
1.29948e-05
-9.10519e-06
0.000886048
-0.000896737
5.33436e-06
-1.69953e-06
0.000893233
-0.000892417
-1.82345e-06
5.71568e-06
0.000888684
-0.00089165
-9.49364e-06
1.327e-05
0.000888053
-0.000900252
-1.6559e-05
1.95849e-05
0.000897425
-0.000896225
-2.20919e-05
2.48e-05
0.000893731
-0.000899196
-2.70957e-05
2.92083e-05
0.000897308
-0.000902814
-3.08056e-05
3.2221e-05
0.000901628
-0.000907473
-3.28341e-05
3.18882e-05
0.000908652
-0.000916952
-2.99708e-05
3.16396e-05
0.000915515
-0.000914846
-3.28362e-05
3.26086e-05
0.000915299
-0.000918164
-3.17615e-05
3.06003e-05
0.000919542
-0.000921869
-2.92593e-05
2.77316e-05
0.000923605
-0.000925681
-2.59606e-05
2.41246e-05
0.000927713
-0.000929236
-2.18793e-05
1.95871e-05
0.000931713
-0.000932812
-1.71197e-05
1.45154e-05
0.000935589
-0.000936617
-1.17685e-05
8.88973e-06
0.000939657
-0.000940683
-5.89186e-06
3.39362e-06
0.000943332
-0.000944151
-1.10751e-06
-2.03157e-06
0.00094743
-0.000949132
5.56631e-06
-9.01644e-06
0.000952711
-0.000955217
1.27474e-05
-1.65002e-05
0.000959089
-0.000962857
2.06348e-05
-2.51278e-05
0.00096746
-0.000972621
2.94655e-05
-3.43942e-05
0.000977651
-0.000985588
3.9954e-05
-4.48143e-05
0.000990543
-0.00100434
4.91961e-05
-5.28612e-05
0.0010081
-0.00102909
5.5846e-05
-5.90513e-05
0.00103238
-0.00103552
6.06973e-05
-5.7569e-05
0.00103246
-0.000890655
4.74124e-05
-3.16149e-05
0.000874927
-0.000450332
1.49006e-05
-3.30702e-06
0.000438806
-0.000238507
5.50513e-06
0.000233127
-2.75894e-07
-0.000737984
-1.68489e-05
3.11543e-05
0.000723534
-0.000992936
-4.41859e-05
5.21175e-05
0.000984896
-0.00103165
-5.43473e-05
5.25704e-05
0.00103332
-0.00100759
-4.88141e-05
4.43447e-05
0.00101195
-0.000985954
-4.01168e-05
3.5629e-05
0.000990331
-0.000971659
-3.13349e-05
2.69778e-05
0.000975903
-0.000961375
-2.2765e-05
1.82406e-05
0.000965782
-0.000953455
-1.44851e-05
1.0729e-05
0.000957091
-0.000947169
-7.09574e-06
3.56827e-06
0.000950573
-0.000942012
-1.67299e-07
-3.1251e-06
0.00094518
-0.000936714
7.11885e-06
-1.10933e-05
0.000940562
-0.000932483
1.51264e-05
-1.95383e-05
0.000936768
-0.000928805
2.26438e-05
-2.51774e-05
0.000931211
-0.00092685
2.70164e-05
-2.72376e-05
0.000926944
-0.00092036
2.79043e-05
-3.88084e-05
0.000931139
-0.000922497
3.89113e-05
-4.17077e-05
0.000925174
-0.000918665
4.39986e-05
-4.55643e-05
0.000920117
-0.000913574
4.71419e-05
-4.85582e-05
0.000914888
-0.00090878
4.97157e-05
-5.03385e-05
0.000909312
-0.000906635
4.99705e-05
-4.88963e-05
0.000905489
-0.000900939
4.87308e-05
-4.84937e-05
0.00090065
-0.00089487
4.70233e-05
-4.47225e-05
0.000892543
-0.000890216
4.20837e-05
-3.89359e-05
0.00088707
-0.000887937
3.54333e-05
-3.14804e-05
0.000884019
-0.000885215
2.73894e-05
-2.27723e-05
0.000880666
-0.000881511
1.77761e-05
-1.24521e-05
0.000876291
-0.000888926
7.1815e-06
-2.00477e-06
0.000883887
-0.000884147
-3.04034e-06
8.46323e-06
0.000878895
-0.000883753
-1.36594e-05
1.87566e-05
0.00087885
-0.00089392
-2.32146e-05
2.74683e-05
0.000889884
-0.000891049
-3.12682e-05
3.48443e-05
0.000887707
-0.00089502
-3.75435e-05
4.01966e-05
0.000892611
-0.000900378
-4.21734e-05
4.35616e-05
0.000899237
-0.000910057
-4.30438e-05
4.17709e-05
0.000911579
-0.000913537
-4.34213e-05
4.47133e-05
0.000912488
-0.00091596
-4.44866e-05
4.37825e-05
0.000916897
-0.000920772
-4.24982e-05
4.1168e-05
0.000922322
-0.000925426
-3.93313e-05
3.73841e-05
0.00092758
-0.000929949
-3.50897e-05
3.2821e-05
0.00093241
-0.000934196
-3.01522e-05
2.75415e-05
0.000936985
-0.000938466
-2.45714e-05
2.168e-05
0.000941521
-0.000942466
-1.93153e-05
1.68307e-05
0.000945102
-0.000946042
-1.34215e-05
1.0008e-05
0.000949594
-0.000951063
-6.2195e-06
2.00992e-06
0.0009554
-0.000956622
2.14385e-06
-6.72293e-06
0.000961318
-0.000963167
1.20874e-05
-1.63893e-05
0.000967577
-0.000973005
1.94132e-05
-2.13417e-05
0.000975033
-0.00098086
2.44481e-05
-2.80964e-05
0.0009846
-0.000994007
3.16408e-05
-3.56526e-05
0.000998104
-0.00101242
3.99176e-05
-4.40667e-05
0.00101665
-0.00103576
4.81466e-05
-5.11899e-05
0.00103888
-0.00102901
5.17217e-05
-4.7679e-05
0.00102504
-0.000860276
3.80878e-05
-2.4559e-05
0.000846811
-0.000428827
1.12184e-05
-2.4166e-06
0.000420085
-0.000228497
4.23687e-06
0.000224317
-2.05706e-07
-0.000710202
-1.32294e-05
2.50899e-05
0.000698199
-0.000977011
-3.64818e-05
4.42576e-05
0.000969128
-0.00103467
-4.73416e-05
4.64661e-05
0.00103544
-0.00101652
-4.33533e-05
3.94462e-05
0.00102032
-0.00099472
-3.5024e-05
3.06894e-05
0.000998946
-0.000979872
-2.62818e-05
2.18891e-05
0.000984153
-0.000969419
-1.72859e-05
1.33107e-05
0.000973278
-0.000961276
-9.42848e-06
5.61681e-06
0.000964967
-0.000954873
-1.78786e-06
-1.86748e-06
0.000958404
-0.000948635
5.53629e-06
-9.86979e-06
0.000952842
-0.000943687
1.42032e-05
-1.88695e-05
0.000948223
-0.000939332
2.37285e-05
-2.74344e-05
0.000942905
-0.000935663
3.04811e-05
-3.28889e-05
0.000937935
-0.000932059
3.3585e-05
-3.48964e-05
0.000933233
-0.000932092
4.76596e-05
-5.01348e-05
0.000934428
-0.00092743
5.31363e-05
-5.48736e-05
0.00092903
-0.000922584
5.65604e-05
-5.86045e-05
0.000924493
-0.000916231
6.10193e-05
-6.30722e-05
0.000918156
-0.000910023
6.44033e-05
-6.52536e-05
0.000910755
-0.000904351
6.56078e-05
-6.48999e-05
0.000903541
-0.000900974
6.31429e-05
-6.26685e-05
0.000900418
-0.000890326
6.24348e-05
-6.0536e-05
0.000888374
-0.000883382
5.73995e-05
-5.34615e-05
0.000879421
-0.000879145
4.86824e-05
-4.22468e-05
0.000872726
-0.000875816
3.44716e-05
-2.98387e-05
0.00087124
-0.000870051
2.4179e-05
-1.69829e-05
0.000862956
-0.000877732
9.55869e-06
-2.12115e-06
0.000870438
-0.000872566
-5.17634e-06
1.2751e-05
0.000865176
-0.000873258
-1.9775e-05
2.53064e-05
0.000867941
-0.000884259
-2.92354e-05
3.73064e-05
0.000876429
-0.000883662
-4.38132e-05
4.87114e-05
0.000879021
-0.000889943
-5.25026e-05
5.54621e-05
0.00088725
-0.000898643
-5.69433e-05
5.59911e-05
0.000899864
-0.000911137
-5.47377e-05
5.80575e-05
0.000908082
-0.000911862
-5.99501e-05
6.0062e-05
0.000912003
-0.000917948
-5.89752e-05
5.77367e-05
0.000919424
-0.000924124
-5.58818e-05
5.38557e-05
0.00092637
-0.000929804
-5.14042e-05
4.89449e-05
0.000932465
-0.000935048
-4.61415e-05
4.31724e-05
0.000938201
-0.000940048
-4.0141e-05
3.76265e-05
0.000942729
-0.000943876
-3.45679e-05
3.07679e-05
0.000947827
-0.000948811
-2.59662e-05
2.1061e-05
0.000953854
-0.000953675
-1.51707e-05
1.08471e-05
0.000958125
-0.000961091
-8.0713e-06
6.60001e-06
0.000962677
-0.000964062
-3.67726e-06
1.60803e-07
0.000967684
-0.000970482
3.11684e-06
-6.78212e-06
0.000974244
-0.000978427
1.06309e-05
-1.45553e-05
0.000982439
-0.00098862
1.85523e-05
-2.25322e-05
0.000992681
-0.00100213
2.65956e-05
-3.06624e-05
0.00100627
-0.00102083
3.46929e-05
-3.87331e-05
0.00102494
-0.00104146
4.2377e-05
-4.47063e-05
0.00104386
-0.00102062
4.42599e-05
-3.97477e-05
0.00101617
-0.000834265
3.07119e-05
-1.91377e-05
0.000822749
-0.000412345
8.51049e-06
-1.71012e-06
0.000405597
-0.000220686
3.24329e-06
0.000217443
-1.50866e-07
-0.000687247
-1.0464e-05
2.03094e-05
0.000677259
-0.000961475