/*--------------------------------*- C++ -*----------------------------------*\
  =========                 |
  \\      /  F ield         | OpenFOAM: The Open Source CFD Toolbox
   \\    /   O peration     | Website:  https://openfoam.org
    \\  /    A nd           | Version:  7
     \\/     M anipulation  |
\*---------------------------------------------------------------------------*/
FoamFile
{
    version     2.0;
    format      ascii;
    class       volVectorField;
    location    "85";
    object      U;
}
// * * * * * * * * * * * * * * * * * * * * * * * * * * * * * * * * * * * * * //

dimensions      [0 1 -1 0 0 0 0];

internalField   nonuniform List<vector> 
17475
(
(1.01828 0.20579 -1.66606e-20)
(0.996001 0.0223704 -2.65423e-20)
(0.999793 0.009732 0)
(0.999948 0.00487445 0)
(0.999984 0.00303107 0)
(0.999995 0.00206903 0)
(0.999999 0.00148154 0)
(1 0.00108482 0)
(1 0.000798364 -5.58629e-20)
(1 0.000581464 0)
(1 0.000411567 0)
(1 0.000275238 0)
(1 0.000164335 0)
(1 7.33208e-05 0)
(1 -1.12731e-06 0)
(1 -6.14997e-05 0)
(1 -0.000109179 0)
(1 -0.000145416 0)
(1 -0.000170859 0)
(1 -0.000186312 0)
(1 -0.000192123 -2.14239e-19)
(1 -0.000189217 4.16687e-22)
(1 -0.000178101 0)
(1 -0.000159765 -6.76068e-21)
(1 -0.000135854 0)
(1 -0.000105627 -1.35299e-20)
(0.999999 -7.25612e-05 0)
(0.999999 -3.74913e-05 0)
(0.999999 -1.79406e-06 -1.69258e-21)
(0.999998 3.27268e-05 5.40356e-20)
(0.999998 6.46783e-05 5.31262e-20)
(0.999998 9.24209e-05 0)
(0.999997 0.000114786 0)
(0.999997 0.000130429 -5.32579e-20)
(0.999997 0.000138496 -5.31335e-20)
(0.999996 0.000137974 0)
(0.999996 0.000128251 -4.10675e-22)
(0.999996 0.000108497 0)
(0.999996 7.81293e-05 5.20532e-20)
(0.999996 3.59111e-05 2.59576e-20)
(0.999996 -1.85912e-05 -2.58949e-20)
(0.999995 -8.67846e-05 0)
(0.999995 -0.000170725 -2.59248e-20)
(0.999995 -0.000273681 0)
(0.999995 -0.000400465 -1.30793e-20)
(0.999995 -0.000558493 0)
(0.999994 -0.000759223 2.694e-20)
(0.999994 -0.00102108 0)
(0.999992 -0.00137437 0)
(0.99999 -0.00187069 0)
(0.999987 -0.0025998 0)
(0.999983 -0.00370268 -1.64594e-20)
(0.999947 -0.00538927 3.65726e-20)
(0.998946 -0.00295465 4.02945e-20)
(1.02904 -0.0897395 -3.93995e-20)
(0.870997 0.0787891 2.50937e-20)
(1.10019 0.0972487 0)
(1.03468 0.0584825 0)
(1.01492 0.0373943 0)
(1.00774 0.025427 -1.81438e-19)
(1.00459 0.0181517 -1.75671e-19)
(1.003 0.0133956 1.68572e-19)
(1.00209 0.0100854 0)
(1.00152 0.0076636 0)
(1.00115 0.00582322 0)
(1.00089 0.00438502 0)
(1.00069 0.00323856 0)
(1.00054 0.00231419 0)
(1.00043 0.00156566 0)
(1.00033 0.000963216 0)
(1.00024 0.00048586 0)
(1.00017 0.00012053 0)
(1.0001 -0.0001433 0)
(1.00004 -0.000312059 0)
(0.999991 -0.000392458 0)
(0.999944 -0.000389159 0)
(0.999903 -0.00030937 0)
(0.99987 -0.00015925 2.92202e-19)
(0.999841 5.29106e-05 -7.29183e-20)
(0.999825 0.000318627 -1.4499e-19)
(0.999817 0.000621823 -3.25191e-22)
(0.999819 0.000951707 -1.77696e-20)
(0.999832 0.00129199 0)
(0.999855 0.00162971 -8.69163e-21)
(0.999888 0.00194912 8.58101e-21)
(0.999931 0.00223613 -1.35981e-19)
(0.999983 0.00247632 1.36147e-19)
(1.00004 0.00265794 0)
(1.00011 0.00276989 -2.59053e-19)
(1.00018 0.00280369 1.99074e-21)
(1.00025 0.00275152 2.51123e-19)
(1.00033 0.00260758 0)
(1.00041 0.00236608 1.21527e-19)
(1.00049 0.00202197 0)
(1.00057 0.00156874 -1.19217e-19)
(1.00067 0.000997881 1.18126e-19)
(1.00077 0.000297453 0)
(1.00089 -0.000550503 0)
(1.00103 -0.00157384 0)
(1.00121 -0.00281443 1.39784e-22)
(1.00145 -0.00433667 5.85164e-20)
(1.00179 -0.00623971 -5.92606e-20)
(1.00229 -0.00868077 -3.00601e-20)
(1.00304 -0.0119161 0)
(1.00423 -0.0163798 0)
(1.00624 -0.0228464 0)
(1.00977 -0.0327845 -3.39668e-20)
(1.01633 -0.0495041 3.54541e-20)
(1.02842 -0.0727718 2.3741e-21)
(1.07072 -0.178141 2.81403e-21)
(0.609237 0.0196555 1.34769e-20)
(1.13887 0.106532 -1.95114e-20)
(1.07812 0.0755184 -8.11529e-20)
(1.04069 0.0543843 0)
(1.02423 0.0402781 0)
(1.01565 0.0302908 -1.64344e-19)
(1.01076 0.0229878 0)
(1.00776 0.0175045 0)
(1.00582 0.0132794 0)
(1.00449 0.00994602 3.1749e-19)
(1.00354 0.00726479 0)
(1.00282 0.00507665 0)
(1.00226 0.00327603 0)
(1.00181 0.00179113 0)
(1.00143 0.000574133 0)
(1.0011 -0.000407778 -3.05418e-19)
(1.0008 -0.00117605 0)
(1.00053 -0.00174654 0)
(1.00028 -0.00213021 0)
(1.00005 -0.0023369 0)
(0.999834 -0.00237453 5.97946e-19)
(0.999644 -0.00225353 0)
(0.999476 -0.00198732 2.20683e-19)
(0.99934 -0.00158656 -1.45816e-19)
(0.999236 -0.0010754 0)
(0.99917 -0.000475592 -3.58655e-20)
(0.999144 0.000186702 0)
(0.999158 0.000881458 4.41082e-20)
(0.999215 0.00157807 2.62205e-20)
(0.999315 0.00224714 0)
(0.999454 0.00285801 -1.19056e-19)
(0.99963 0.00338295 4.16818e-21)
(0.999837 0.00379783 -2.04689e-21)
(1.00007 0.00408066 -1.29597e-19)
(1.00033 0.00421393 1.27414e-19)
(1.0006 0.00418297 0)
(1.00088 0.00397622 2.37896e-19)
(1.00118 0.00358284 -2.40841e-19)
(1.00149 0.00299443 2.54305e-19)
(1.00181 0.00219895 0)
(1.00217 0.00118169 2.93766e-20)
(1.00256 -7.76114e-05 -4.93051e-22)
(1.00302 -0.00160957 1.14053e-19)
(1.00356 -0.00346004 -6.17987e-22)
(1.00425 -0.00569763 -5.66499e-20)
(1.00516 -0.00842393 0)
(1.0064 -0.0117923 0)
(1.00818 -0.016035 2.84376e-20)
(1.01083 -0.0215104 -2.94314e-20)
(1.01496 -0.0287825 -4.78965e-22)
(1.02174 -0.0387488 9.01593e-20)
(1.03337 -0.0528844 -6.18884e-20)
(1.05442 -0.0734372 6.06478e-20)
(1.10082 -0.105326 0)
(0.963495 -0.117768 3.14371e-20)
(0.480192 0.00950507 0)
(1.11531 0.0898436 0)
(1.11434 0.0803785 3.63812e-20)
(1.06537 0.0611034 0)
(1.04199 0.0474294 1.55044e-19)
(1.02896 0.0370052 0)
(1.02094 0.0288316 0)
(1.0157 0.0223072 0)
(1.01212 0.017021 0)
(1.00957 0.0126796 0)
(1.00769 0.00907509 0)
(1.00624 0.00605726 0)
(1.00509 0.00352203 3.06554e-19)
(1.00414 0.00139516 0)
(1.00331 -0.000373052 0)
(1.00259 -0.00181732 0)
(1.00193 -0.00296132 0)
(1.00131 -0.00381984 0)
(1.00074 -0.00440256 0)
(1.0002 -0.00471859 -3.00829e-19)
(0.999697 -0.00477641 0)
(0.999234 -0.00458985 0)
(0.998824 -0.00416822 -1.4747e-19)
(0.998475 -0.00353903 0)
(0.998199 -0.00273133 -2.18259e-19)
(0.998005 -0.00177998 3.58004e-20)
(0.997905 -0.000726642 -1.42637e-19)
(0.997902 0.000384761 2.74825e-22)
(0.997997 0.00150537 6.95871e-20)
(0.998191 0.00258427 5.18899e-20)
(0.998477 0.00357697 1.36061e-19)
(0.998848 0.00443779 4.166e-21)
(0.999293 0.00512917 0)
(0.999797 0.00561866 -1.1736e-21)
(1.00035 0.00588048 0)
(1.00094 0.0058943 -1.15294e-19)
(1.00156 0.00564469 -1.20812e-19)
(1.00221 0.00511855 1.1947e-19)
(1.00289 0.00431029 2.33864e-19)
(1.0036 0.00320359 9.43709e-20)
(1.00436 0.00178388 -2.86458e-20)
(1.0052 3.00335e-05 -5.62287e-20)
(1.00616 -0.00209055 0)
(1.00731 -0.0046274 0)
(1.00872 -0.00765286 -5.47073e-20)
(1.01054 -0.0112718 5.44778e-20)
(1.01298 -0.0156345 1.35608e-19)
(1.01637 -0.0209554 2.75012e-20)
(1.02127 -0.0275388 -1.14453e-22)
(1.02859 -0.0358134 -2.67574e-20)
(1.03995 -0.0463824 1.07739e-19)
(1.05828 -0.0601005 -8.01757e-20)
(1.09037 -0.0783459 7.53675e-20)
(1.13366 -0.100619 4.81025e-20)
(0.813336 -0.0597432 -1.35615e-20)
(0.399845 0.00532347 0)
(1.06043 0.0687745 -3.47147e-20)
(1.13746 0.0765706 6.70871e-20)
(1.08771 0.0615147 7.07369e-20)
(1.05881 0.0493027 7.31222e-20)
(1.04237 0.0395242 1.48927e-19)
(1.03184 0.0313998 -1.50118e-19)
(1.02466 0.0245694 -1.5134e-19)
(1.01956 0.018783 0)
(1.0158 0.0138488 -3.03974e-19)
(1.01293 0.00962042 -6.07477e-19)
(1.01067 0.00598687 -3.04256e-19)
(1.00883 0.00286707 -3.04284e-19)
(1.00726 0.000202214 0)
(1.00589 -0.00204694 0)
(1.00466 -0.00390921 0)
(1.00351 -0.00539778 -6.04389e-19)
(1.00243 -0.00652138 6.51505e-22)
(1.00141 -0.00728345 -6.01174e-19)
(1.00042 -0.00768757 -3.00227e-19)
(0.999491 -0.00774021 -7.44026e-20)
(0.998626 -0.00744445 1.48178e-19)
(0.997844 -0.00682258 -1.48327e-19)
(0.997168 -0.00590363 1.46887e-19)
(0.996622 -0.00472616 0)
(0.996226 -0.00333688 -7.266e-20)
(0.995999 -0.00179656 1.43592e-19)
(0.995953 -0.000168618 0)
(0.996093 0.00147781 -3.47266e-20)
(0.996415 0.00306434 -1.73257e-20)
(0.99691 0.0045294 -1.36373e-19)
(0.997562 0.00580446 1.24979e-20)
(0.998346 0.00683803 0)
(0.999239 0.00758658 1.36311e-19)
(1.00022 0.00801738 0)
(1.00126 0.00810608 0)
(1.00235 0.00783649 -2.37753e-19)
(1.00348 0.0072016 -5.59727e-20)
(1.00465 0.00619502 1.2166e-19)
(1.00587 0.00480781 1.06343e-19)
(1.00716 0.00303213 -1.24737e-19)
(1.00856 0.000852746 -1.09714e-19)
(1.01014 -0.00175421 -1.34504e-19)
(1.01198 -0.0048277 7.96825e-20)
(1.01421 -0.00842614 1.05075e-19)
(1.01701 -0.0126322 -2.56396e-20)
(1.02066 -0.01756 0)
(1.02559 -0.0233616 -5.09114e-20)
(1.03245 -0.0302347 -5.03789e-20)
(1.04231 -0.0384322 -2.53203e-20)
(1.05695 -0.0482606 -2.37962e-20)
(1.07963 -0.0601197 -7.09596e-20)
(1.11752 -0.0747771 -4.38116e-20)
(1.1233 -0.0826754 0)
(0.694429 -0.0290975 7.12056e-20)
(0.35023 0.00325856 0)
(0.998222 0.0513049 0)
(1.14579 0.0691156 -1.28143e-19)
(1.10663 0.0589417 -1.34219e-19)
(1.07394 0.0481438 0)
(1.055 0.0392148 0)
(1.04262 0.0314954 1.44553e-19)
(1.03392 0.0247301 0)
(1.02756 0.0187777 0)
(1.02273 0.0135279 0)
(1.01894 0.00889401 -2.98279e-19)
(1.01588 0.00480892 -2.99487e-19)
(1.01331 0.00122296 0)
(1.01109 -0.00189821 0)
(1.0091 -0.00457763 1.26123e-22)
(1.00727 -0.00682507 0)
(1.00554 -0.00864022 1.20294e-18)
(1.00387 -0.0100183 1.20679e-18)
(1.00225 -0.0109501 -6.00632e-19)
(1.00068 -0.0114305 2.98945e-19)
(0.999175 -0.0114441 3.73278e-19)
(0.997752 -0.0110014 -7.44513e-20)
(0.99645 -0.0101185 4.46158e-19)
(0.995309 -0.00882821 -7.32156e-20)
(0.99437 -0.00717701 -2.78767e-22)
(0.993675 -0.00522604 -1.45968e-19)
(0.993257 -0.00305964 1.8236e-19)
(0.99314 -0.000766156 1.43034e-19)
(0.993333 0.0015564 -3.67995e-22)
(0.99383 0.00379384 6.94356e-20)
(0.994615 0.00586198 6.76208e-20)
(0.995655 0.00766238 0)
(0.996908 0.00912757 -1.17318e-19)
(0.998332 0.0102028 0)
(0.999882 0.010849 0)
(1.00152 0.0110419 1.51344e-19)
(1.00322 0.0107707 -1.19741e-19)
(1.00497 0.0100386 0)
(1.00675 0.00884237 7.04485e-21)
(1.00858 0.00719133 0)
(1.01049 0.00509007 0)
(1.01254 0.00253748 -1.19486e-19)
(1.01479 -0.000476252 1.30765e-20)
(1.01735 -0.00396914 2.74382e-22)
(1.02039 -0.00797571 -1.23429e-20)
(1.02412 -0.0125463 -1.23014e-19)
(1.02885 -0.0177498 -1.19176e-20)
(1.03505 -0.0236723 1.06842e-19)
(1.04343 -0.0304197 -9.34872e-20)
(1.05508 -0.0381084 0)
(1.07186 -0.0468826 4.34869e-20)
(1.09734 -0.0569963 9.65836e-22)
(1.13448 -0.0682321 -4.00249e-20)
(1.08986 -0.0649279 -6.03211e-20)
(0.613959 -0.0166102 0)
(0.31684 0.00221204 1.37231e-20)
(0.940055 0.0384663 -3.515e-20)
(1.1425 0.0603913 6.23251e-20)
(1.12199 0.0548813 0)
(1.08758 0.0453887 0)
(1.0667 0.0371894 -1.36494e-19)
(1.05297 0.0299129 0)
(1.04315 0.0233295 -2.83539e-19)
(1.0358 0.0173493 -2.86957e-19)
(1.03008 0.0119185 0)
(1.02549 0.00699691 -1.46604e-19)
(1.02169 0.00255692 2.95531e-19)
(1.01843 -0.00142408 -5.94574e-19)
(1.01554 -0.00496107 0)
(1.0129 -0.0080504 0)
(1.0104 -0.0106817 0)
(1.00799 -0.012833 -4.66426e-21)
(1.00562 -0.0144799 0)
(1.00328 -0.0155982 0)
(1.00096 -0.0161498 2.98894e-19)
(0.998701 -0.0161141 -3.35157e-22)
(0.996537 -0.0154865 0)
(0.994529 -0.0142751 0)
(0.992742 -0.0125109 4.50136e-19)
(0.991251 -0.0102475 2.98899e-19)
(0.990125 -0.00756089 3.70549e-20)
(0.989429 -0.00457435 0)
(0.989202 -0.00140348 2.91374e-19)
(0.989463 0.00181214 1.07946e-19)
(0.990204 0.00490127 8.81798e-23)
(0.991388 0.00775146 0)
(0.992962 0.0102311 0)
(0.994856 0.0122434 6.38699e-21)
(0.996993 0.0137238 0)
(0.999299 0.0146309 0)
(1.00171 0.0149459 -3.39694e-22)
(1.00419 0.0146751 -2.28417e-19)
(1.00669 0.0138301 -1.14267e-19)
(1.0092 0.0124286 1.09575e-19)
(1.01174 0.010501 6.57384e-21)
(1.01434 0.00807249 -1.02956e-19)
(1.01706 0.00516261 1.06848e-21)
(1.02 0.00178201 9.42156e-22)
(1.02327 -0.00206594 1.2266e-20)
(1.02705 -0.0063867 -8.31781e-20)
(1.03158 -0.0111992 0)
(1.0372 -0.0165324 -1.02578e-19)
(1.04438 -0.0224187 0)
(1.05384 -0.0289057 -4.3168e-20)
(1.06671 -0.0360462 0)
(1.0849 -0.0439229 4.07564e-20)
(1.11208 -0.0527294 -2.16759e-22)
(1.14231 -0.060793 -1.79544e-20)
(1.04911 -0.0506719 -5.66328e-20)
(0.559019 -0.0111376 2.76679e-20)
(0.293043 0.00157869 0)
(0.889604 0.0292749 -3.55271e-20)
(1.13152 0.0517653 0)
(1.13373 0.050102 0)
(1.10003 0.0418362 6.41653e-20)
(1.07763 0.0341716 5.84717e-22)
(1.06289 0.0272427 0)
(1.05226 0.0208224 -1.37341e-19)
(1.04416 0.0148403 -2.79765e-19)
(1.03775 0.00926951 0)
(1.03249 0.00409867 0)
(1.02804 -0.000676281 0)
(1.02414 -0.00504902 0)
(1.0206 -0.00900947 -4.38206e-19)
(1.01729 -0.0125302 -1.4635e-19)
(1.01408 -0.015577 0)
(1.01092 -0.018109 1.85164e-20)
(1.00774 -0.0200872 4.43883e-19)
(1.00452 -0.0214367 -2.78825e-23)
(1.00128 -0.0221026 -1.48755e-19)
(0.998047 -0.0220309 0)
(0.994909 -0.0211981 1.50507e-19)
(0.991946 -0.0195912 5.72436e-22)
(0.98927 -0.0172319 1.5336e-19)
(0.987001 -0.0141777 0)
(0.985261 -0.0105224 -7.59574e-20)
(0.984158 -0.00643899 -7.5248e-20)
(0.983764 -0.00208762 1.50132e-19)
(0.984116 0.0023302 7.40825e-20)
(0.985198 0.00656053 -1.44018e-19)
(0.986949 0.0104468 0)
(0.98927 0.0138026 -1.69671e-20)
(0.992042 0.0165014 -1.31676e-19)
(0.995139 0.0184697 1.57413e-20)
(0.998439 0.0196701 2.09365e-21)
(1.00185 0.0201019 2.2731e-19)
(1.00529 0.0197967 1.14056e-19)
(1.00869 0.0187808 1.09651e-19)
(1.01205 0.0171139 -1.04329e-19)
(1.01537 0.0148535 0)
(1.01871 0.0120515 1.04483e-19)
(1.02213 0.00875348 0)
(1.02573 0.00499559 0)
(1.02965 0.000802275 -9.25284e-20)
(1.03408 -0.00380784 0)
(1.03927 -0.00882381 4.29403e-20)
(1.04558 -0.0142415 8.50227e-20)
(1.05347 -0.0200718 2.13161e-20)
(1.0637 -0.0263264 -8.02884e-20)
(1.07739 -0.033032 0)
(1.09659 -0.0402597 3.80569e-20)
(1.12435 -0.0480751 0)
(1.14295 -0.0532774 -1.63067e-20)
(1.0084 -0.0397172 3.53922e-20)
(0.518657 -0.00808034 0)
(0.275369 0.00115533 0)
(0.847132 0.0226073 -3.57858e-20)
(1.11627 0.0438327 -5.99116e-20)
(1.14212 0.0450121 5.97138e-20)
(1.11151 0.0379176 -6.15243e-20)
(1.08803 0.0306267 -1.27064e-19)
(1.0725 0.0239104 0)
(1.06128 0.0175736 0)
(1.05264 0.0115442 0)
(1.04571 0.00580958 0)
(1.03993 0.000373088 2.80444e-19)
(1.03495 -0.00475587 0)
(1.03049 -0.00955636 -5.69507e-19)
(1.02634 -0.013994 0)
(1.02236 -0.0180211 0)
(1.01842 -0.0215843 5.41001e-19)
(1.01444 -0.0246131 4.36622e-19)
(1.01032 -0.0270218 -1.47273e-19)
(1.00607 -0.0287119 -1.48166e-19)
(1.0017 -0.02959 1.49772e-19)
(0.997243 -0.0295534 6.04785e-19)
(0.992818 -0.0285297 3.05109e-19)
(0.988564 -0.0264781 -1.52966e-19)
(0.984648 -0.023391 0)
(0.98127 -0.0193206 2.14739e-21)
(0.978635 -0.0143775 7.79837e-20)
(0.976931 -0.00880445 -7.68742e-20)
(0.976287 -0.002832 -1.93437e-19)
(0.976767 0.00323948 9.94532e-23)
(0.978344 0.00902602 0)
(0.980914 0.0142979 -7.14478e-20)
(0.984302 0.0187916 -1.35785e-19)
(0.9883 0.0223413 1.29994e-19)
(0.992702 0.0248711 -1.24233e-19)
(0.997317 0.0263613 -1.51147e-19)
(1.002 0.0268553 -2.29541e-19)
(1.00662 0.0264122 5.47919e-20)
(1.0111 0.0251067 2.606e-20)
(1.01542 0.023052 0)
(1.0196 0.0203432 0)
(1.0237 0.0170669 -5.94284e-21)
(1.0278 0.0132988 1.82335e-19)
(1.03202 0.00909996 8.92683e-20)
(1.03651 0.00451896 0)
(1.04148 -0.000404872 8.42045e-20)
(1.04719 -0.00564434 1.98158e-20)
(1.054 -0.0111812 -2.03998e-20)
(1.0624 -0.0170073 4.81834e-21)
(1.07314 -0.0231225 7.27034e-20)
(1.08744 -0.0295489 2.85467e-19)
(1.10737 -0.0363495 1.37766e-19)
(1.13444 -0.0433461 -3.20056e-20)
(1.13841 -0.0461578 -3.20209e-20)
(0.971299 -0.0314611 -5.18774e-20)
(0.488771 -0.00598525 1.02964e-19)
(0.261948 0.000861207 0)
(0.811853 0.0176563 -7.1909e-20)
(1.09918 0.0368112 5.89927e-20)
(1.14761 0.0398817 -5.74491e-20)
(1.12214 0.0338719 1.18793e-19)
(1.09813 0.026849 1.23478e-19)
(1.08198 0.0202232 -2.52914e-19)
(1.07034 0.013875 6.25068e-22)
(1.06134 0.00772788 -1.31858e-19)
(1.05404 0.00176823 -2.69988e-19)
(1.04788 -0.00399628 -2.72681e-19)
(1.04248 -0.00954861 0)
(1.03756 -0.0148527 2.76306e-19)
(1.03289 -0.0198592 0)
(1.02829 -0.0245058 -5.7897e-19)
(1.02362 -0.028727 -7.04688e-20)
(1.01875 -0.0324237 -2.86583e-19)
(1.0136 -0.0354585 4.35885e-19)
(1.00815 -0.0376922 -5.8718e-19)
(1.0024 -0.0389746 0)
(0.99641 -0.0391407 3.03633e-19)
(0.990287 -0.0380169 -4.60634e-19)
(0.984262 -0.0355181 1.55172e-19)
(0.978594 -0.0315769 0)
(0.973599 -0.0262125 -1.60094e-19)
(0.969622 -0.0195422 7.93057e-20)
(0.967001 -0.0119076 1.62553e-19)
(0.965965 -0.00365458 1.58644e-19)
(0.966637 0.00475136 -1.57209e-19)
(0.968965 0.0127071 0)
(0.972759 0.0198624 0)
(0.977717 0.025833 1.72348e-19)
(0.983467 0.0304096 3.08826e-21)
(0.989674 0.0335318 -2.18677e-19)
(0.996053 0.0352388 -3.53447e-19)
(1.00237 0.0356434 5.66425e-20)
(1.00843 0.0348493 -2.62791e-20)
(1.01416 0.0330422 0)
(1.01955 0.0303907 0)
(1.02463 0.0270433 8.12667e-20)
(1.02949 0.0231284 9.87173e-20)
(1.03422 0.0187529 -8.99126e-21)
(1.03898 0.0140064 0)
(1.04394 0.00895616 -8.01092e-20)
(1.04933 0.00364767 5.69365e-20)
(1.05541 -0.00188609 1.49401e-19)
(1.06257 -0.00761567 0)
(1.07131 -0.0135176 0)
(1.0824 -0.0195861 4.24537e-21)
(1.09709 -0.0258567 -9.79911e-20)
(1.11746 -0.0323918 9.43324e-20)
(1.14244 -0.0386711 -1.53616e-20)
(1.13085 -0.0396255 1.32112e-19)
(0.939321 -0.0251342 -1.31524e-19)
(0.466796 -0.00461871 2.09317e-19)
(0.251623 0.000646545 0)
(0.782701 0.0138991 -3.57491e-20)
(1.08187 0.0307305 8.68755e-20)
(1.15081 0.0349108 -5.57402e-20)
(1.132 0.0298587 -1.15423e-19)
(1.10809 0.0230427 -2.37711e-19)
(1.09148 0.0164112 -1.22553e-19)
(1.07956 0.00996525 -1.25595e-19)
(1.07035 0.003625 0)
(1.06284 -0.00263154 0)
(1.05645 -0.00880174 0)
(1.05078 -0.0148614 0)
(1.04551 -0.0207738 1.33728e-19)
(1.04041 -0.0264807 -2.70394e-19)
(1.03528 -0.0319134 0)
(1.02992 -0.0370125 2.07829e-19)
(1.02418 -0.0416116 -1.39856e-19)
(1.01794 -0.0455535 1.72402e-21)
(1.01115 -0.0486485 2.92076e-19)
(1.00376 -0.0506701 1.3935e-21)
(0.995837 -0.0513585 3.04891e-19)
(0.987488 -0.0504091 -3.11755e-19)
(0.979006 -0.0475747 0)
(0.970808 -0.0427078 -1.63291e-19)
(0.963389 -0.0357288 -1.69625e-19)
(0.95733 -0.0267373 0)
(0.953242 -0.0161676 -1.70573e-19)
(0.951568 -0.00460466 2.14703e-19)
(0.952541 0.00720547 4.16858e-20)
(0.956063 0.0182797 -2.1676e-19)
(0.961778 0.0280507 -7.6294e-20)
(0.969117 0.0359153 -1.2233e-19)
(0.977443 0.0416613 1.30952e-19)
(0.986194 0.0453003 0)
(0.994948 0.0470085 2.31839e-19)
(1.00332 0.0469732 -2.75577e-20)
(1.01111 0.0454701 2.5541e-20)
(1.01826 0.042808 0)
(1.0248 0.0392373 2.2842e-20)
(1.03078 0.0349724 1.07764e-19)
(1.03633 0.0301876 0)
(1.0416 0.0250267 -7.894e-20)
(1.04679 0.0195832 -7.42578e-20)
(1.0521 0.0139324 0)
(1.05776 0.00813575 6.97763e-20)
(1.06406 0.00223904 -3.39423e-20)
(1.07139 -0.00374762 0)
(1.08028 -0.00980388 -3.16651e-20)
(1.09154 -0.0159274 -6.24819e-20)
(1.10647 -0.0221556 -6.05963e-20)
(1.12695 -0.0285174 2.94398e-20)
(1.14867 -0.0341477 8.28149e-20)
(1.12165 -0.0337809 5.48845e-20)
(0.911923 -0.0202247 -1.08636e-19)
(0.449868 -0.00359949 -6.92524e-20)
(0.243586 0.00048188 0)
(0.758641 0.0110073 0)
(1.06529 0.0255545 0)
(1.1523 0.0302539 0)
(1.14116 0.0260061 0)
(1.11801 0.0193643 0)
(1.10113 0.0126627 0)
(1.08906 0.00605297 0)
(1.07978 -0.000545407 2.48014e-19)
(1.07222 -0.0071675 0)
(1.06576 -0.013815 -2.52495e-19)
(1.05998 -0.0204734 0)
(1.05454 -0.0271059 0)
(1.04918 -0.0336662 5.26099e-19)
(1.04366 -0.0401025 0)
(1.03772 -0.0463175 0)
(1.03119 -0.0521522 0)
(1.0239 -0.0574185 2.7967e-19)
(1.01567 -0.0618583 -2.84982e-19)
(1.00641 -0.0651553 0)
(0.996127 -0.0669271 -1.5079e-19)
(0.984906 -0.066709 -3.18798e-19)
(0.973017 -0.0639387 0)
(0.961079 -0.0582482 -1.66255e-19)
(0.949891 -0.0493621 4.65892e-21)
(0.940444 -0.0372324 -5.40783e-19)
(0.933882 -0.0223797 -1.86325e-19)
(0.931105 -0.00580147 -1.42271e-21)
(0.932581 0.011181 -9.03523e-20)
(0.938133 0.026895 1.05987e-20)
(0.947021 0.0403339 1.5501e-19)
(0.958123 0.050595 1.80385e-20)
(0.97032 0.0575261 4.15179e-21)
(0.982722 0.0613731 -7.19983e-19)
(0.994618 0.0625259 1.63808e-19)
(1.00553 0.0614169 2.53737e-20)
(1.01534 0.0586097 4.74371e-20)
(1.02403 0.0545496 2.16741e-20)
(1.03168 0.0496006 1.94157e-20)
(1.03847 0.0440501 -2.30693e-19)
(1.04459 0.0380995 -2.12349e-19)
(1.05025 0.0319192 -2.92025e-19)
(1.05569 0.0256095 -6.78055e-20)
(1.06113 0.0192419 0)
(1.06686 0.0128637 1.61617e-20)
(1.07319 0.00651191 0)
(1.08053 0.000195682 -2.95523e-20)
(1.08943 -0.00608088 -2.85339e-20)
(1.10074 -0.0123278 -1.40377e-20)
(1.11578 -0.0185887 5.43166e-20)
(1.136 -0.0248356 0)
(1.15349 -0.0298961 0)
(1.11188 -0.0286678 0)
(0.888758 -0.0163766 1.37986e-20)
(0.436789 -0.0028332 6.51546e-20)
(0.237317 0.00036757 0)
(0.738872 0.00877517 0)
(1.05003 0.0212367 2.78884e-20)
(1.15262 0.0260422 5.23477e-20)
(1.14968 0.0224374 0)
(1.12794 0.0159533 0)
(1.111 0.00915083 1.12822e-19)
(1.09893 0.00233573 0)
(1.08973 -0.00456491 2.37579e-19)
(1.08228 -0.0115984 0)
(1.07593 -0.0187791 -4.83712e-19)
(1.07023 -0.0261084 -1.2168e-19)
(1.06483 -0.0335647 4.9478e-19)
(1.05943 -0.0411232 1.04221e-18)
(1.05375 -0.0487797 -2.54818e-19)
(1.0475 -0.0564043 6.54947e-20)
(1.04042 -0.0638667 1.31051e-19)
(1.03223 -0.0709717 0)
(1.02265 -0.0774401 0)
(1.01143 -0.0828508 0)
(0.9984 -0.086667 1.49065e-19)
(0.983556 -0.0881974 -1.62385e-19)
(0.96706 -0.0865066 -9.82862e-19)
(0.949546 -0.0805701 1.71134e-19)
(0.932314 -0.0697021 -3.69775e-19)
(0.917055 -0.0533764 -7.73528e-19)
(0.906002 -0.0320786 3.00679e-19)
(0.901152 -0.00747172 -2.06119e-19)
(0.903525 0.0177338 -1.98538e-19)
(0.912766 0.0407251 -2.60743e-20)
(0.927214 0.0593884 -8.38618e-20)
(0.944547 0.0724783 -1.49733e-19)
(0.962731 0.0802046 -2.70957e-19)
(0.980308 0.0833439 -4.83383e-19)
(0.996238 0.0827702 1.02966e-19)
(1.01019 0.0795244 -9.65857e-20)
(1.02216 0.074464 6.64471e-20)
(1.03231 0.0682342 -2.3735e-19)
(1.04093 0.0612997 -7.5983e-20)
(1.04829 0.0540049 -6.70668e-20)
(1.05469 0.0465758 1.33032e-19)
(1.06043 0.0391403 0)
(1.06582 0.031794 -4.529e-20)
(1.07115 0.024588 0)
(1.07674 0.0175504 0)
(1.08292 0.010688 2.83636e-20)
(1.0901 0.00399629 4.10053e-20)
(1.09887 -0.00254247 2.52548e-20)
(1.11008 -0.00895564 2.43734e-20)
(1.12508 -0.0152889 2.34803e-20)
(1.14465 -0.0214467 0)
(1.1572 -0.026016 -1.19353e-20)
(1.10217 -0.0242911 -2.33457e-20)
(0.86922 -0.0133717 5.35584e-20)
(0.426651 -0.00228138 -1.749e-19)
(0.232355 0.000295473 0)
(0.722532 0.00708024 -3.419e-20)
(1.03631 0.0177113 0)
(1.15221 0.0223747 0)
(1.15764 0.01927 1.02008e-19)
(1.13788 0.0129386 1.05592e-19)
(1.12112 0.00602931 -5.42936e-20)
(1.10918 -0.00100497 0)
(1.10022 -0.00821661 5.63207e-20)
(1.09306 -0.0156692 -1.13463e-19)
(1.08703 -0.023397 0)
(1.08165 -0.0314255 -1.15481e-19)
(1.07655 -0.0397721 -3.71024e-21)
(1.07144 -0.0484568 -8.93413e-20)
(1.06594 -0.0574858 5.88264e-20)
(1.05976 -0.0667904 -3.02578e-21)
(1.05256 -0.076291 2.53707e-19)
(1.04392 -0.085836 0)
(1.03338 -0.0951604 5.31054e-19)
(1.02046 -0.103863 -1.6746e-21)
(1.00465 -0.111247 0)
(0.985565 -0.116358 -4.6317e-19)
(0.963067 -0.117801 -1.64093e-19)
(0.937427 -0.113542 6.97527e-19)
(0.910214 -0.101485 6.34322e-21)
(0.884441 -0.0799818 0)
(0.86453 -0.0486263 2.14737e-19)
(0.855351 -0.0103119 -1.21939e-19)
(0.85951 0.029304 1.10298e-19)
(0.876104 0.0643318 -4.08591e-19)
(0.901033 0.0903054 1.71331e-19)
(0.929094 0.105983 3.08096e-19)
(0.956614 0.112923 5.08527e-19)
(0.981192 0.113092 -1.06223e-19)
(1.00201 0.10869 -1.03422e-19)
(1.01917 0.101536 8.09806e-20)
(1.03311 0.0928451 -2.93294e-19)
(1.04434 0.0834478 2.14379e-19)
(1.05339 0.07385 6.53841e-20)
(1.06076 0.0643381 0)
(1.06694 0.0550971 8.03036e-20)
(1.07236 0.0462139 -2.29694e-20)
(1.07737 0.0377199 0)
(1.08231 0.0296143 -4.92152e-20)
(1.08752 0.0218766 -5.03108e-20)
(1.09332 0.0144897 4.72913e-20)
(1.10017 0.00741358 -1.19015e-19)
(1.10865 0.000608587 -4.69832e-20)
(1.11964 -0.0059769 2.20778e-20)
(1.13444 -0.0123895 2.13235e-20)
(1.15295 -0.0184539 -1.02761e-20)
(1.16005 -0.0225921 -3.05014e-20)
(1.09274 -0.020604 5.05782e-21)
(0.852229 -0.0110038 -5.93325e-21)
(0.417874 -0.00189325 0)
(0.228356 0.000229742 0)
(0.708937 0.00582885 0)
(1.02406 0.0149391 -5.26151e-20)
(1.15135 0.0193353 0)
(1.1651 0.0166223 -4.87572e-20)
(1.14783 0.0104542 5.00142e-20)
(1.1315 0.0034665 1.02694e-19)
(1.11982 -0.00375813 0)
(1.11125 -0.0112526 2.1182e-19)
(1.10455 -0.0190948 0)
(1.09904 -0.0273455 -4.34559e-19)
(1.09424 -0.0360584 -2.19236e-19)
(1.08978 -0.0452946 -6.90272e-21)
(1.08531 -0.0550992 -2.24488e-19)
(1.08048 -0.0655759 2.24733e-19)
(1.07495 -0.0767199 2.30589e-19)
(1.06831 -0.0885602 -1.15071e-19)
(1.06003 -0.101072 -3.59443e-19)
(1.04946 -0.114145 -1.19952e-19)
(1.03578 -0.127495 2.55268e-19)
(1.01801 -0.140575 0)
(0.994966 -0.152306 -5.08105e-21)
(0.965435 -0.16075 3.13572e-19)
(0.928734 -0.162874 0)
(0.885232 -0.153571 0)
(0.839234 -0.127252 4.65627e-19)
(0.800058 -0.0799951 -1.07354e-20)
(0.78072 -0.0159708 3.31981e-21)
(0.788905 0.0514444 -5.40648e-19)
(0.822015 0.107674 4.5651e-19)
(0.868327 0.143184 3.73589e-19)
(0.915364 0.158556 6.01798e-19)
(0.956618 0.159777 3.94827e-19)
(0.989825 0.152311 1.98746e-19)
(1.01567 0.140468 0)
(1.03536 0.126826 0)
(1.05016 0.112825 1.53695e-19)
(1.06128 0.0991585 2.68791e-21)
(1.06975 0.0862096 -5.66034e-20)
(1.07637 0.0741124 -4.30435e-20)
(1.0817 0.0628921 -8.71243e-20)
(1.08628 0.0524993 6.48056e-20)
(1.09046 0.0428563 0)
(1.09464 0.033886 2.12957e-20)
(1.09916 0.0255079 -1.99636e-20)
(1.10435 0.0176449 0)
(1.11067 0.0102316 0)
(1.11871 0.00319642 -1.71705e-21)
(1.12935 -0.00353103 0)
(1.14378 -0.00999978 0)
(1.16088 -0.015958 -1.45639e-22)
(1.16228 -0.0197324 0)
(1.08398 -0.0176522 -2.62235e-20)
(0.837742 -0.00921618 0)
(0.410139 -0.00156907 -3.80863e-20)
(0.225027 0.000222035 0)
(0.697507 0.00498071 8.06106e-21)
(1.01325 0.0128928 6.35751e-21)
(1.1503 0.0169919 0)
(1.17211 0.0145941 5.79899e-21)
(1.15771 0.00860745 0)
(1.14205 0.00159154 0)
(1.13078 -0.00576299 0)
(1.12272 -0.0134647 0)
(1.11667 -0.021606 0)
(1.1119 -0.0302715 0)
(1.10794 -0.0395482 0)
(1.10444 -0.0495307 0)
(1.10104 -0.0603769 3.11076e-19)
(1.09744 -0.0722065 -1.04792e-19)
(1.09327 -0.0851394 -2.12652e-19)
(1.08811 -0.0993534 -2.13447e-19)
(1.0814 -0.115043 3.06889e-21)
(1.07236 -0.132405 -1.18243e-19)
(1.05995 -0.151589 -2.09497e-21)
(1.04261 -0.172572 4.9517e-19)
(1.01812 -0.194914 -2.78793e-19)
(0.983292 -0.217066 0)
(0.93414 -0.23539 3.11341e-19)
(0.866452 -0.241596 -1.57975e-18)
(0.780499 -0.218876 9.6308e-19)
(0.694774 -0.148038 5.96539e-19)
(0.648288 -0.0296371 2.28689e-18)
(0.66663 0.0997492 0)
(0.742005 0.196086 9.85653e-19)
(0.835254 0.238571 -1.29578e-18)
(0.914851 0.241019 -3.65251e-19)
(0.973447 0.224168 -9.57229e-20)
(1.01451 0.200611 -4.68087e-19)
(1.04267 0.176073 3.71177e-21)
(1.06191 0.152878 3.06762e-19)
(1.07508 0.131935 -2.76425e-20)
(1.08421 0.113266 1.16745e-19)
(1.09064 0.0967586 3.74416e-20)
(1.09532 0.0820911 6.4278e-20)
(1.09894 0.0690038 0)
(1.10199 0.0572577 1.70437e-20)
(1.10489 0.0466312 2.54466e-20)
(1.10799 0.0369437 2.84137e-20)
(1.11154 0.0280627 -1.65348e-20)
(1.11592 0.0198541 5.48218e-20)
(1.12155 0.0122101 -1.46112e-20)
(1.12902 0.00502805 -6.73152e-20)
(1.1392 -0.00176547 -7.3304e-21)
(1.15311 -0.00823222 -1.5538e-20)
(1.16846 -0.0140409 -1.45172e-20)
(1.164 -0.0174793 8.01609e-21)
(1.07584 -0.0153907 8.03561e-21)
(0.825148 -0.00795161 7.39451e-22)
(0.403491 -0.00139538 1.7554e-20)
(0.221867 0.000282337 1.73959e-19)
(0.687416 0.00451612 -2.48205e-19)
(1.00348 0.011546 1.89077e-22)
(1.14908 0.0153824 8.89194e-20)
(1.1787 0.0132575 -8.76802e-20)
(1.16748 0.00749101 -8.92786e-20)
(1.15269 0.000530307 0)
(1.14193 -0.00685293 1.68309e-22)
(1.1345 -0.0146409 -4.63522e-20)
(1.12922 -0.0229374 2.33419e-20)
(1.12537 -0.0318498 -2.33995e-20)
(1.12249 -0.0414947 -2.33391e-20)
(1.12025 -0.0520065 1.18225e-20)
(1.11834 -0.0635813 4.6371e-20)
(1.11652 -0.0764078 7.36504e-20)
(1.11447 -0.0907371 1.46346e-19)
(1.11183 -0.106908 5.71192e-19)
(1.10817 -0.125358 9.87107e-20)
(1.10279 -0.146685 0)
(1.0947 -0.171727 0)
(1.08237 -0.201538 -2.0015e-19)
(1.06297 -0.23752 2.2631e-20)
(1.0316 -0.281143 -6.66276e-19)
(0.979137 -0.33287 2.63354e-19)
(0.88769 -0.388205 -3.16607e-19)
(0.726785 -0.411381 0)
(0.513413 -0.319289 3.88191e-18)
(0.386025 -0.0673043 -1.22155e-18)
(0.433662 0.224907 -5.19948e-18)
(0.638096 0.400202 1.96786e-18)
(0.833322 0.415325 0)
(0.958708 0.360914 -6.20666e-19)
(1.02759 0.301796 1.52647e-19)
(1.0663 0.250384 1.05074e-19)
(1.08847 0.208244 4.56305e-20)
(1.1013 0.174041 3.65573e-20)
(1.10879 0.146057 5.42959e-20)
(1.11324 0.122819 0)
(1.11573 0.103315 -1.29714e-20)
(1.11722 0.0866691 1.08638e-19)
(1.11828 0.072264 0)
(1.11922 0.059635 -1.48252e-21)
(1.12037 0.0484303 -4.32439e-21)
(1.12201 0.0383744 -1.63411e-20)
(1.12437 0.0292529 -5.44847e-21)
(1.12777 0.020906 1.04305e-20)
(1.13258 0.0131947 -5.92875e-21)
(1.13937 0.00600414 -6.44598e-21)
(1.14901 -0.000764852 -7.74211e-22)
(1.16226 -0.00715072 4.93396e-21)
(1.17563 -0.0127655 4.21328e-21)
(1.16539 -0.0158941 -8.82166e-21)
(1.06848 -0.0138273 -1.29612e-20)
(0.814298 -0.00716462 -7.42523e-21)
(0.397697 -0.00133571 -1.38823e-20)
(0.214325 0.000350522 -2.64404e-18)
(0.675212 0.0043725 0)
(0.992887 0.0107565 -7.33238e-19)
(1.14721 0.0144353 6.63667e-19)
(1.18482 0.0126316 6.54019e-19)
(1.17707 0.00717964 0)
(1.1633 0.000395515 6.76606e-19)
(1.15311 -0.00688419 0)
(1.14637 -0.0146039 0)
(1.14195 -0.0228705 3.44723e-19)
(1.13913 -0.0318077 0)
(1.13749 -0.0415443 -3.37004e-19)
(1.13672 -0.0522329 -1.08766e-20)
(1.13659 -0.0640939 4.26728e-20)
(1.13694 -0.0773619 6.39191e-20)
(1.13757 -0.0923567 6.35172e-20)
(1.13832 -0.10951 4.10003e-20)
(1.13897 -0.129425 -1.5954e-21)
(1.13928 -0.152977 -8.36493e-20)
(1.13892 -0.181516 7.82231e-20)
(1.13735 -0.217189 -3.85445e-19)
(1.1334 -0.263663 6.54023e-20)
(1.12509 -0.327654 0)
(1.108 -0.425531 0)
(1.04976 -0.575815 -1.35059e-19)
(0.805927 -0.665989 0)
(0.209489 -0.360005 7.46006e-17)
(0.360137 0.457444 -8.8447e-20)
(0.914544 0.664223 6.15806e-20)
(1.1241 0.491126 2.10119e-19)
(1.14481 0.360927 -1.30014e-19)
(1.15247 0.279352 -2.1161e-19)
(1.15387 0.222921 -7.79512e-20)
(1.1523 0.181572 2.03251e-20)
(1.1495 0.149724 -2.39254e-21)
(1.14641 0.124434 2.4787e-21)
(1.1434 0.103782 -4.90708e-22)
(1.14073 0.0865306 -9.06694e-22)
(1.13855 0.071825 -4.76501e-22)
(1.13698 0.0590803 -3.43932e-21)