/*--------------------------------*- C++ -*----------------------------------*\
  =========                 |
  \\      /  F ield         | OpenFOAM: The Open Source CFD Toolbox
   \\    /   O peration     | Website:  https://openfoam.org
    \\  /    A nd           | Version:  7
     \\/     M anipulation  |
\*---------------------------------------------------------------------------*/
FoamFile
{
    version     2.0;
    format      ascii;
    class       volScalarField;
    location    "5";
    object      k;
}
// * * * * * * * * * * * * * * * * * * * * * * * * * * * * * * * * * * * * * //

dimensions      [0 2 -2 0 0 0 0];

internalField   nonuniform List<scalar> 
17475
(
0.00725106
0.0125075
0.0125517
0.0125606
0.0125529
0.0125571
0.012552
0.0125512
0.012552
0.0125629
0.0125414
0.0125367
0.0125565
0.0125471
0.0125457
0.0125537
0.0125503
0.0125393
0.0125452
0.0125475
0.0125481
0.0125459
0.0125458
0.0125455
0.0125408
0.0125525
0.0125605
0.0125562
0.0125483
0.0125524
0.0125536
0.0125638
0.0125547
0.0125607
0.0125556
0.0125599
0.0125609
0.0125586
0.0125497
0.0125624
0.012565
0.0125722
0.0125785
0.0125849
0.0125906
0.012594
0.0125972
0.0126064
0.0126174
0.0126118
0.0126059
0.0126155
0.0126223
0.0126097
0.0120488
0.000207398
0.00437278
0.00520306
0.00535028
0.00533222
0.00537062
0.00522334
0.00521461
0.00518085
0.00520301
0.00511617
0.00516282
0.00525563
0.0051948
0.0051078
0.00526038
0.00518384
0.00513794
0.00527338
0.00521739
0.00523277
0.00527332
0.00530445
0.00517381
0.00522465
0.00512051
0.00530872
0.00524651
0.00520125
0.00519738
0.00521541
0.00530946
0.00522232
0.00528351
0.00526671
0.00528353
0.00531877
0.00537308
0.00525438
0.0053162
0.00525041
0.00524595
0.00526132
0.00526521
0.00522479
0.0052478
0.00526176
0.00532146
0.00537231
0.00529157
0.00520561
0.00522486
0.00532924
0.00494876
0.00157824
2.84848e-05
0.00180041
0.00308937
0.00318491
0.00310543
0.00311792
0.00300168
0.00295146
0.00294192
0.00295428
0.0033234
0.0032115
0.0030984
0.00297445
0.0030594
0.003074
0.00293746
0.00318912
0.00296515
0.00312884
0.00304038
0.00304971
0.00313756
0.00298376
0.00323651
0.00313118
0.00311335
0.00319759
0.00300845
0.00312373
0.00297537
0.0031592
0.00298804
0.0030875
0.00333255
0.0029937
0.00300073
0.00315222
0.00314602
0.00320604
0.00310081
0.00332217
0.0033149
0.00320227
0.00306216
0.00312109
0.00314593
0.00299721
0.00316309
0.00298907
0.00301722
0.00305176
0.00317365
0.00251935
0.000290285
9.4476e-06
0.000826043
0.00213801
0.00284767
0.00260469
0.00275905
0.00271237
0.0025172
0.00253813
0.0024918
0.00252844
0.00252687
0.00237298
0.00241557
0.00239272
0.00239629
0.00283115
0.00280293
0.00272086
0.00233114
0.00249859
0.00244739
0.0023454
0.00240269
0.00260636
0.00237793
0.00228357
0.00232433
0.00241735
0.00267197
0.00239803
0.00228946
0.00237318
0.00231569
0.00250248
0.00243246
0.00239951
0.0023481
0.00239194
0.00232325
0.00245732
0.00248044
0.00235696
0.00231293
0.00229713
0.00231249
0.00237319
0.00250623
0.00233209
0.00235954
0.00242595
0.00243833
0.00224872
0.0015814
0.000109729
5.16261e-06
0.0004711
0.00179551
0.00259068
0.00299204
0.00302613
0.0029321
0.00333999
0.00318832
0.00298461
0.00303222
0.00301868
0.00319064
0.0026761
0.0024373
0.00288762
0.00276691
0.00240527
0.00234557
0.0023048
0.00250214
0.00245986
0.00228899
0.00236951
0.00284831
0.00294951
0.00232351
0.00222709
0.00266888
0.00264705
0.00236192
0.00227507
0.00244702
0.00229698
0.0023611
0.00289244
0.00235128
0.00229734
0.00245269
0.0027116
0.00237229
0.00242547
0.00280852
0.0023281
0.00299541
0.0028773
0.00241894
0.00253922
0.00246311
0.00243931
0.00232769
0.00225668
0.0019815
0.00104974
7.0942e-05
4.17487e-06
0.000384683
0.0016665
0.00294685
0.00387593
0.00322943
0.00360848
0.00350661
0.0034814
0.003152
0.00360766
0.00350231
0.00349718
0.0035251
0.00353209
0.00298803
0.00282031
0.00294701
0.00249804
0.00246651
0.00255088
0.00260859
0.00242682
0.00254159
0.00306953
0.00265239
0.00240077
0.00239386
0.00252576
0.00252569
0.00260289
0.00280867
0.00284595
0.00261417
0.00264914
0.00321075
0.002518
0.00249624
0.00260886
0.00291905
0.00276166
0.0027977
0.00261403
0.0024594
0.00277755
0.00275814
0.0029684
0.00321203
0.0038842
0.00275981
0.00258367
0.00272658
0.00200162
0.00100533
7.26045e-05
4.23495e-06
0.000377377
0.00167346
0.0031731
0.00351195
0.00388122
0.00351001
0.00355614
0.00406039
0.00336817
0.00413037
0.00377986
0.00329721
0.00387116
0.00369087
0.00345599
0.00308029
0.00294059
0.00275669
0.0031248
0.00282419
0.00275092
0.00317425
0.00310699
0.00295544
0.00305262
0.00254982
0.00295594
0.00292215
0.00269321
0.00291554
0.00294715
0.00306535
0.00306114
0.00325702
0.00310379
0.00286648
0.00288994
0.0036275
0.00328585
0.00297928
0.00295365
0.00342371
0.00285432
0.00296206
0.00326738
0.00302189
0.00357958
0.00363845
0.00297156
0.00290844
0.00274223
0.00214541
0.00108407
8.23724e-05
4.67596e-06
0.000473821
0.00216038
0.00354205
0.00420181
0.00361268
0.0035912
0.00348945
0.00404634
0.00363825
0.00401969
0.00404538
0.00354278
0.00362659
0.00396523
0.00425374
0.00352655
0.00304142
0.00289105
0.00317876
0.00295552
0.00302111
0.00387858
0.00373001
0.00357912
0.00316729
0.00281818
0.00300128
0.00310995
0.00346471
0.0037224
0.00352556
0.00326556
0.00336343
0.00343924
0.00329103
0.00293147
0.0031347
0.00349237
0.00360147
0.00425133
0.00334024
0.00334043
0.00310237
0.00316734
0.00334749
0.003155
0.00351863
0.00385567
0.00321895
0.00298646
0.00281786
0.00257793
0.00134754
0.00010104
4.86048e-06
0.000452328
0.00269456
0.00399172
0.00401587
0.00367434
0.00379933
0.00356268
0.00390603
0.00383598
0.00402614
0.00394711
0.00370952
0.0035928
0.00403025
0.00423819
0.00396305
0.003163
0.00308987
0.0032944
0.00318229
0.0035091
0.00351283
0.0034759
0.00339232
0.00367164
0.00327761
0.00311868
0.00309148
0.00317121
0.00409702
0.00320461
0.00405932
0.00351799
0.00377192
0.0034736
0.00348832
0.00351143
0.00366019
0.00363885
0.00382601
0.00409815
0.00353348
0.00361924
0.00331059
0.00328579
0.00413788
0.00362958
0.00430497
0.00343577
0.00309374
0.00396606
0.00268243
0.00210444
0.000124529
4.83078e-06
0.000469127
0.00258288
0.00384438
0.00396251
0.00385536
0.00454361
0.00370327
0.0037582
0.00384809
0.00434765
0.00447543
0.00384633
0.00370766
0.00442961
0.00479669
0.0040274
0.00353975
0.0033656
0.00346071
0.00327807
0.00355299
0.00347313
0.00349042
0.00331711
0.00335739
0.00325532
0.00313525
0.00319322
0.0031425
0.00372398
0.00319932
0.00389484
0.00370717
0.00381026
0.0036425
0.00403839
0.00423476
0.00389618
0.00365341
0.00403331
0.0043086
0.00367175
0.00350401
0.00335402
0.00331584
0.00380632
0.00446934
0.00391659
0.00349304
0.00317105
0.00358095
0.00270521
0.00174524
0.000125704
5.03601e-06
0.000487775
0.00233499
0.00363549
0.00397252
0.0039523
0.00419849
0.00392083
0.00476218
0.00391233
0.00503646
0.00447005
0.00407704
0.00387886
0.0043725
0.00463953
0.00392626
0.00340482
0.00333508
0.00356529
0.00368693
0.00391124
0.00355182
0.003824
0.00333683
0.00347365
0.00323472
0.0032504
0.00339499
0.00353511
0.00344399
0.00331427
0.0036687
0.00367516
0.00395808
0.00381831
0.00389085
0.00426806
0.00395043
0.00374246
0.00377895
0.00425742
0.00380395
0.00359942
0.00332395
0.00341882
0.00399491
0.00424428
0.00375662
0.00356238
0.00397363
0.00375346
0.00285551
0.00198567
0.000131225
5.31286e-06
0.000506662
0.00223579
0.0035818
0.00428915
0.00491223
0.00401946
0.00427947
0.00456043
0.00411695
0.00461222
0.00448932
0.00456955
0.00430916
0.00413156
0.00455037
0.00445348
0.00347755
0.00345418
0.0036507
0.00380835
0.00392331
0.00379159
0.00361696
0.00398183
0.0040529
0.00410958
0.00403069
0.00360863
0.00326272
0.00348047
0.0034684
0.00350474
0.00373341
0.00417291
0.00415023
0.00378791
0.00434259
0.00445551
0.00397445
0.00370343
0.00439185
0.00403856
0.00365366
0.00335896
0.003471
0.00411904
0.00421365
0.00372619
0.0035646
0.00365123
0.00401174
0.0030453
0.0023648
0.000148207
5.70381e-06
0.000514636
0.00218073
0.00372734
0.00506774
0.00454783
0.0043461
0.00426207
0.0042565
0.00444998
0.00452274
0.00405935
0.00414502
0.00420455
0.00402384
0.00398065
0.00413055
0.00351411
0.00401745
0.00377152
0.00436631
0.00368014
0.00366083
0.00354943
0.00428029
0.00394772
0.00361449
0.00360286
0.00362548
0.00321461
0.00326463
0.00339765
0.00347563
0.0037537
0.00378084
0.00375838
0.00370204
0.00385935
0.00401748
0.00389406
0.00362944
0.00406351
0.00420512
0.00365782
0.00428552
0.00352126
0.00403007
0.00414396
0.00367081
0.00360657
0.00356472
0.0039777
0.00328891
0.00227183
0.000160423
6.11411e-06
0.000598859
0.002477
0.003835
0.00448437
0.00479995
0.00490478
0.0047943
0.00418128
0.00449577
0.00411888
0.0038696
0.00411426
0.00410896
0.00435877
0.00418899
0.0039812
0.00376332
0.00378544
0.00377371
0.00384632
0.00366274
0.00365166
0.00363587
0.00401206
0.00363471
0.00359948
0.00351827
0.0041579
0.00327437
0.00309845
0.00339334
0.00388385
0.00431007
0.0037501
0.0037878
0.00381243
0.00421735
0.00436328
0.0042537
0.00353153
0.00380367
0.0041608
0.00372543
0.00384902
0.00368701
0.00367701
0.00398009
0.00406201
0.00410441
0.00365017
0.00351176
0.00335127
0.00213047
0.000143643
7.1719e-06
0.000742155
0.00310369
0.00408488
0.00433946
0.00450947
0.00478807
0.00475157
0.00460081
0.00390108
0.00393396
0.00402236
0.0047079
0.0042089
0.00432044
0.00398401
0.00367206
0.00391674
0.00381462
0.00392012
0.00386793
0.00381078
0.00369761
0.00361825
0.00382544
0.003451
0.00341868
0.00354572
0.00380699
0.00338065
0.00313837
0.00332345
0.00359719
0.00425952
0.00383262
0.00371035
0.00407833
0.00455406
0.00430547
0.00415704
0.00357832
0.00392261
0.0041672
0.00376341
0.00389837
0.00436545
0.00356223
0.00374973
0.00476864
0.00467436
0.00377181
0.00378874
0.00386755
0.00200919
0.000145615
7.54888e-06
0.000805982
0.00332705
0.00408012
0.00451885
0.00430804
0.00486249
0.00451151
0.0041375
0.00385086
0.00385373
0.00400293
0.00431546
0.00440024
0.00386138
0.00362318
0.00349926
0.00378812
0.00405461
0.00411913
0.00389185
0.00388886
0.00380495
0.00368213
0.00378592
0.00353901
0.00338598
0.00363691
0.00376551
0.00374527
0.00361831
0.0034331
0.00398314
0.0040622
0.00435466
0.00399576
0.00436275
0.0041861
0.00419715
0.00431608
0.00360894
0.00439469
0.00400164
0.00384622
0.00423915
0.00402938
0.00367484
0.00438878
0.00422243
0.00448536
0.00421377
0.0035649
0.00371682
0.00212367
0.000143349
7.21628e-06
0.000730529
0.00299742
0.00397108
0.00417476
0.0046488
0.00473408
0.00453041
0.00418762
0.00395621
0.0039862
0.00436668
0.00433962
0.00425554
0.00368891
0.00364137
0.00353874
0.00385713
0.00416863
0.00423924
0.00384135
0.00430427
0.00409276
0.00397127
0.00395065
0.00391046
0.00321843
0.00306378
0.00321386
0.0037366
0.00412123
0.00364517
0.00364939
0.00386044
0.0041865
0.00390328
0.00403276
0.00411046
0.0041183
0.00398089
0.00360107
0.00437573
0.00399565
0.00379804
0.00399259
0.00407183
0.00377661
0.00439671
0.00414708
0.00447959
0.00368899
0.00342011
0.00352454
0.00247608
0.000151418
6.47225e-06
0.000745477
0.00291036
0.00386212
0.00420315
0.00425287
0.00458776
0.00486697
0.0041105
0.00397356
0.00407086
0.0044457
0.0051907
0.00391688
0.00363392
0.00368168
0.00372983
0.00413206
0.0045732
0.00420568
0.00396922
0.00455931
0.00416437
0.0041387
0.00306848
0.00114446
1.82797e-05
0.000121444
0.00243148
0.00378288
0.00369392
0.00396635
0.00402818
0.00389676
0.00422523
0.00404958
0.00454833
0.00410197
0.00367038
0.00422644
0.00391651
0.00381697
0.00385378
0.00442718
0.00385015
0.0041445
0.00421144
0.00396618
0.00384825
0.00337563
0.00324788
0.00204383
0.000148183
2.94312e-06
0.000570845
0.00277402
0.00407096
0.00417336
0.0042571
0.00410851
0.0043009
0.00404911
0.0039848
0.00406696
0.00433639
0.00454197
0.00389714
0.00381996
0.00374428
0.00387201
0.0041665
0.00432777
0.00450441
0.00383723
0.00414543
0.00398269
0.00335545
0.000889101
4.47866e-06
0.00219839
0.00370062
0.00400517
0.00417878
0.00442463
0.00421538
0.00401418
0.00430674
0.00405801
0.00369768
0.00389819
0.00397864
0.004351
0.00426804
0.004167
0.00424941
0.00403923
0.00413959
0.00394412
0.00396427
0.00422347
0.00316668
0.00195981
0.000129134
6.70981e-06
0.000900479
0.00364395
0.00425787
0.0045867
0.00448138
0.00425572
0.00446149
0.00459955
0.00453866
0.0047537
0.0050445
0.00462536
0.00416277
0.00421153
0.00452438
0.00421363
0.0049578
0.00444133
0.00457147
0.00432483
0.00450019
0.00405637
0.0020934
0.000209452
0.00114629
0.00332263
0.00472738
0.00448824
0.00432347
0.00426423
0.00446267
0.00446326
0.00427088
0.00409082
0.00442152
0.004355
0.00455645
0.00472337
0.00499508
0.00460773
0.00449161
0.00434439
0.004601
0.00440728
0.00446602
0.00409109
0.00276902
0.000266358
8.71875e-06
0.00093163
0.00311096
0.00420191
0.0042985
0.00426314
0.00397406
0.00454373
0.00449967
0.00440174
0.00443388
0.00444602
0.00455405
0.00449943
0.00437891
0.00423488
0.00419192
0.00438408
0.00411629
0.00467296
0.00447342
0.00397485
0.00356752
0.00147136
0.000144255
1.71829e-06
2.10964e-05
0.00099267
0.00289597
0.00442823
0.004557
0.00406951
0.00422723
0.00417359
0.00455388
0.0041257
0.0042848
0.0039637
0.00459474
0.00422884
0.00423442
0.00438948
0.00445592
0.00424913
0.00450999
0.00447488
0.00460948
0.00462879
0.00381565
0.00239492
0.000208312
7.35929e-06
0.000776089
0.00288665
0.00346155
0.00365148
0.00395356
0.00365375
0.0037445
0.00374201
0.00406154
0.00379028
0.00393417
0.00396092
0.00378517
0.00379333
0.00391624
0.00354368
0.00371207
0.00373787
0.0038945
0.00394331
0.00357477
0.00306481
0.00168402
0.000646271
8.36046e-05
3.34063e-05
6.44356e-05
3.67068e-05
3.71444e-05
0.000224627
0.00119472
0.00272074
0.00387857
0.0040101
0.0041262
0.00397727
0.00374627
0.00380137
0.00379974
0.00376842
0.00383111
0.0041132
0.0043025
0.00390028
0.00385728
0.00380434
0.00401771
0.00412532
0.003903
0.00404763
0.00373305
0.00352226
0.00217511
0.000173198
5.75037e-06
0.000577708
0.00220172
0.00309382
0.00331059
0.00334639
0.00335981
0.00342277
0.00347233
0.00342318
0.00353777
0.00346109
0.00338468
0.00336994
0.00328234
0.00331226
0.00327645
0.00386741
0.00369238
0.00371788
0.00343845
0.00391334
0.00291573
0.00195364
0.00166271
0.000460415
0.000240339
0.000353225
0.000251002
0.000230537
0.000841599
0.00192147
0.00320537
0.00337347
0.003512
0.00374969
0.00329003
0.0033581
0.00367416
0.0036876
0.00323226
0.00357644
0.00370292
0.00369135
0.00386602
0.00424538
0.00347692
0.00347891
0.0035785
0.00385893
0.00350159
0.00333565
0.00290363
0.00182953
0.000140254
5.2976e-06
0.000516628
0.00217174
0.00327855
0.00317483
0.00331071
0.00393762
0.00385692
0.00371444
0.00341138
0.00441539
0.00418034
0.00349554
0.00327634
0.00310159
0.00377367
0.00342673
0.00344984
0.00365419
0.00361117
0.00380892
0.00377846
0.00284948
0.00252749
0.00235449
0.0017779
0.000866011
0.000825579
0.000714947
0.000951092
0.00189979
0.00222536
0.00322794
0.00317573
0.00328364
0.00344222
0.00325394
0.00313725
0.0031414
0.00323295
0.00302389
0.00321165
0.00326843
0.00337836
0.00358357
0.00405156
0.00347581
0.00325168
0.00389099
0.00354705
0.00336876
0.00358207
0.00291952
0.00192768
0.00013886
5.42179e-06
0.000554279
0.00243358
0.00333094
0.00321564
0.00328987
0.00365451
0.00392397
0.00434182
0.00383098
0.00443966
0.00425612
0.00348968
0.00335114
0.00312468
0.00374712
0.00379401
0.00333707
0.00341632
0.0032783
0.00360048
0.00355795
0.00294345
0.00289345
0.00290809
0.00306694
0.00213348
0.00156073
0.00155046
0.00211964
0.00285445
0.00270126
0.00305837
0.00306987
0.00329661
0.00336674
0.00332887
0.00308755
0.0031356
0.00323511
0.00302239
0.00333451
0.00354636
0.00336129
0.00403692
0.00388576
0.00341592
0.00318756
0.00352186
0.00360588
0.003517
0.00349395
0.0029353
0.00164896
0.000119209
5.50188e-06
0.000559664
0.00230667
0.00374039
0.00330844
0.00342884
0.00429271
0.00448351
0.00403819
0.00399253
0.00400016
0.00387077
0.00358378
0.00405528
0.00370046
0.00358434
0.0035125
0.00325444
0.00328304
0.00316333
0.00336848
0.00350386
0.0033071
0.00351645
0.00335015
0.00325707
0.00316138
0.00229115
0.00262379
0.00305015
0.00326842
0.003256
0.00352467
0.00321428
0.00341959
0.00356919
0.00355122
0.00336135
0.00355752
0.00368823
0.00323782
0.00329139
0.00393636
0.00333595
0.00368897
0.00378111
0.00351469
0.00329335
0.0036206
0.00431834
0.00384094
0.0033964
0.00296881
0.00159823
0.000109739
5.36928e-06
0.000505049
0.00222205
0.00374519
0.00335318
0.00351507
0.0044109
0.00412869
0.00408438
0.00411055
0.00401207
0.00373287
0.00364592
0.00371211
0.00390844
0.00388313
0.00362222
0.00345952
0.00335157
0.00335586
0.00338975
0.00349458
0.00331029
0.00331283
0.00368905
0.00330932
0.0032946
0.0027084
0.00299978
0.00341691
0.0036813
0.00334535
0.00319072
0.00340346
0.00352786
0.00359361
0.00384276
0.00414129
0.00347078
0.00348389
0.0034259
0.00352193
0.00373321
0.00346281
0.00421951
0.00395226
0.00388305
0.00364431
0.00378178
0.00426692
0.00388429
0.00350826
0.00296061
0.00157473
0.000109042
5.52688e-06
0.00054005
0.00280652
0.0035791
0.00350726
0.00361399
0.00393097
0.0044346
0.00461513
0.00425545
0.00406747
0.00429409
0.00385748
0.00382388
0.00375712
0.00402636
0.00357672
0.00377072
0.00345186
0.00335302
0.00338884
0.00353962
0.00335309
0.00341181
0.00399325
0.0035847
0.00355849
0.00337121
0.00328243
0.00419533
0.00413354
0.00379896
0.00330679
0.00350502
0.00357863
0.00370458
0.00434936
0.00404126
0.00342512
0.00353237
0.00368185
0.00361872
0.00367256
0.00352288
0.00379655
0.00433523
0.00430211
0.00378726
0.00451113
0.00423477
0.00374166
0.00372607
0.00299271
0.00161185
0.00011965
5.40825e-06
0.000533417
0.00245582
0.00351247
0.00413808
0.0038538
0.00395369
0.00428543
0.00453331
0.00435385
0.00485377
0.00397788
0.00469288
0.0042555
0.00380305
0.00375547
0.00377673
0.00446412
0.00403729
0.00361916
0.00358769
0.00355238
0.00353358
0.00371966
0.00397929
0.0038728
0.00392162
0.00329257
0.00342652
0.00387963
0.00441176
0.00401247
0.00350835
0.00391352
0.00371826
0.00397489
0.00396852
0.00377432
0.00350925
0.00369301
0.00375409
0.00387008
0.00405758
0.00356854
0.00421048
0.00418651
0.0040716
0.00425885
0.00419735
0.00393633
0.00372007
0.00380185
0.00300014
0.00161166
0.000116953
5.52867e-06
0.000527047
0.00229471
0.00386153
0.0043713
0.00406446
0.00401532
0.00405885
0.00424202
0.00465289
0.00462623
0.00387334
0.00445611
0.00411743
0.00389406
0.00375118
0.00379748
0.00438552
0.00452325
0.00380679
0.00377313
0.00365589
0.00410105
0.00442292
0.00388477
0.00378581
0.00399161
0.0033807
0.00350431
0.00422104
0.00428076
0.00365896
0.00345878
0.00366488
0.0038787
0.0045309
0.00432396
0.00442293
0.00399405
0.00400922
0.00380069
0.00454544
0.00437941
0.00418256
0.00415414
0.00416233
0.00395417
0.00425292
0.00438132
0.00370062
0.00409891
0.00424432
0.00297375
0.00158709
0.000122868
5.45595e-06
0.00050891
0.00228872
0.00385786
0.00483172
0.00446803
0.00439823
0.00393187
0.00417258
0.00423714
0.00415829
0.00394682
0.00419644
0.00428723
0.00412818
0.00462351
0.00384406
0.0041032
0.00424547
0.00390982
0.00375188
0.00380685
0.00387912
0.00409333
0.00390242
0.00378686
0.00360947
0.00363134
0.00374367
0.00414185
0.00380156
0.00354355
0.00344232
0.00363878
0.00390934
0.00411211
0.00405232
0.00401333
0.00404537
0.00404974
0.00406455
0.00441945
0.00396585
0.00372726
0.00406859
0.00365208
0.00411998
0.00409418
0.00414218
0.00357826
0.00374629
0.00391129
0.00301549
0.00157097
0.000116246
5.69848e-06
0.000544094
0.00233681
0.00378223
0.00438891
0.00475679
0.00408485
0.00386876
0.00404905
0.00410269
0.00436243
0.00394679
0.00443348
0.00428524
0.00425078
0.00446785
0.00428104
0.00393922
0.0039818
0.0038858
0.00414452
0.00395189
0.00433121
0.00401025
0.00440194
0.00398913
0.00348259
0.00354726
0.00374391
0.00384278
0.0036624
0.00350488
0.00345298
0.00372053
0.00385171
0.00385845
0.00383595
0.00399502
0.00481841
0.00413038
0.00438043
0.00413931
0.00387468
0.00383225
0.00367505
0.00347106
0.00380998
0.0039431
0.00383173
0.00356923
0.00378585
0.00380812
0.00309518
0.00161693
0.000122729
6.22162e-06
0.000628288
0.00271604
0.00434779
0.00478052
0.00475436
0.00410158
0.00403021
0.00386599
0.00396549
0.00391122
0.00389342
0.00423883
0.00416617
0.00480408
0.0041654
0.00402793
0.00396537
0.00399807
0.00438093
0.00399357
0.00399445
0.00416236
0.00399153
0.00433519
0.00390053
0.00359096
0.00377456
0.00455263
0.00441351
0.00372039
0.0036831
0.00417878
0.00405716
0.00421281
0.00389688
0.00417728
0.00438401
0.00429131
0.0040886
0.00471299
0.00387066
0.00413991
0.004198
0.0035952
0.00349876
0.00370933
0.00418293
0.00434045
0.00366289
0.00433016
0.00447139
0.00309469
0.00167394
0.000120762
6.43113e-06
0.00068628
0.00268433
0.0042345
0.00455446
0.0042218
0.00418018
0.00445586
0.00466962
0.00409655
0.00413038
0.0039252
0.00414683
0.00427214
0.00429624
0.00400473
0.00393036
0.00417103
0.00421873
0.00430429
0.00391929
0.00396894
0.0043735
0.00395995
0.00417114
0.00374152
0.0036418
0.00366474
0.00431832
0.00435798
0.00380601
0.00374515
0.00404166
0.00392552
0.00394095
0.00390054
0.00422282
0.00400702
0.00410221
0.0042088
0.00459575
0.00466814
0.00391041
0.003841
0.00355903
0.00356845
0.00395526
0.00383174
0.00412579
0.00385273
0.00420426
0.0042502
0.003163
0.00224641
0.000123563
6.2253e-06
0.000621338
0.00280795
0.00420612
0.00413077
0.00405431
0.00452023
0.00429355
0.00416048
0.00434601
0.00423877
0.00420729
0.00398632
0.00401158
0.00421618
0.00428476
0.00462244
0.004297
0.00400791
0.0045479
0.00397971
0.00442517
0.00389909
0.00392325
0.00366359
0.00383213
0.00371714
0.00366546
0.00430109
0.00437973
0.00410172
0.00397018
0.00397081
0.00408277
0.0040718
0.00386571
0.00379552
0.00391158
0.00398143
0.00406994
0.00433627
0.00434738
0.00371636
0.00355857
0.00354755
0.0036927
0.00393582
0.00388343
0.00395199
0.00423933
0.0038573
0.00394965
0.00318748
0.00186241
0.000121585
6.08691e-06
0.000592536
0.00259634
0.00378705
0.00409898
0.00397975
0.00452705
0.00423485
0.00416898
0.00425999
0.00463589
0.00416451
0.00406287
0.00400306
0.00426144
0.00418976
0.00450679
0.00406844
0.00420155
0.00440416
0.0039725
0.00392592
0.00378128
0.00431997
0.00355973
0.00368591
0.00364265
0.00361919
0.003758
0.00443126
0.00431119
0.00359594
0.00358256
0.00399322
0.00396548
0.00406388
0.00376334
0.00400251
0.00418467
0.00446368
0.00431406
0.00434343
0.00391205
0.00348083
0.00356032
0.00406458
0.00444436
0.00394475
0.0037378
0.00406825
0.00363258
0.0038843
0.0031953
0.00184969
0.000131097
5.95625e-06
0.000569137
0.00257789
0.00356213
0.00399286
0.00430809
0.00454269
0.00424193
0.00424829
0.00404719
0.00424792
0.00413138
0.00453655
0.00447631
0.00431359
0.00420951
0.00434992
0.00421178
0.00399133
0.00430702
0.00426562
0.00432573
0.00383355
0.00417648
0.00364547
0.00424922
0.00362566
0.00396377
0.00367139
0.00425766
0.0039124
0.00376397
0.0033358
0.00362688
0.00370577
0.00366286
0.00394904
0.00385353
0.00385736
0.00389203
0.00386335
0.00427491
0.0039046
0.00354449
0.00363076
0.00437436
0.00419676
0.00426845
0.00402642
0.00385362
0.00399827
0.00383443
0.00322408
0.00210134
0.00014003
6.28529e-06
0.000647812
0.00290735
0.00376434
0.00423674
0.00415367
0.00450386
0.00424365
0.00424386
0.00457005
0.00466899
0.00412605
0.00425941
0.00423196
0.00463842
0.00421109
0.00400432
0.00393585
0.00377195
0.00382036
0.00425989
0.00413484
0.00419614
0.00389272
0.00359041
0.00372889
0.00359543
0.00399573
0.00359281
0.00423788
0.00436333
0.00340025
0.00318559
0.00340156
0.00360037
0.00351024
0.00420532
0.00392782
0.00386321
0.00383745
0.00370431
0.00411751
0.00434074
0.00383747
0.00373385
0.0041475
0.00384755
0.00398887
0.00373334
0.00366573
0.00376049
0.00384551
0.00337484
0.00188708
0.000131535
6.18502e-06
0.000667512
0.00276405
0.00364521
0.00439707
0.0040507
0.00409485
0.00421873
0.0043267
0.00430045
0.00442135
0.00413926
0.00412326
0.00413964
0.00450985
0.00436574
0.00398197
0.0040966
0.00367793
0.00364569
0.00402172
0.00381891
0.00410465
0.00369387
0.00411605
0.00414184
0.00372726
0.00362857
0.00351666
0.00419137
0.00435321
0.00349529
0.00322193
0.0033696
0.00381432
0.00347446
0.00382584
0.00376195
0.00432262
0.00414241
0.0036384
0.00376164
0.00398893
0.00389643
0.00455227
0.00374491
0.00370368
0.00415645
0.00359801
0.00362273
0.00382639
0.00483142
0.00351046
0.00190414
0.000123071
5.81805e-06
0.000607363
0.00269533
0.00343435
0.00388945
0.00398953
0.00402758
0.00430424
0.00433169
0.00452494
0.00441253
0.00432997
0.00463821
0.00425768
0.00436522
0.00457045
0.00403562
0.00458436
0.00422643
0.00358941
0.00367499
0.00362834
0.00378602
0.0035998
0.00370487
0.00367778
0.00382982
0.00437464
0.00350093
0.00372296
0.00383447
0.00363325
0.00363566
0.0034559
0.00370925
0.0034664
0.00362654
0.00374827
0.00392052
0.0037749
0.00362287
0.00353068
0.00379046
0.00393942
0.00428778
0.00355105
0.0038511
0.00413676
0.00352015
0.00362959
0.00396553
0.00446569
0.00358902
0.00212543
0.000131048
5.83195e-06
0.000613759
0.00234871
0.00379607
0.00372083
0.00398906
0.00416356
0.00454465
0.00477146
0.00507159
0.00431506
0.00448781
0.00492118
0.00424823
0.00472052
0.00425997
0.00434564
0.00441279
0.00419561
0.00394722
0.00390229
0.00354828
0.00362246
0.0035714
0.00377882
0.0037844
0.00379118
0.0040852
0.00425256
0.00385525
0.00374712
0.00385266
0.00406978
0.00353409
0.00384576
0.00346317
0.004447
0.00382363
0.00401795
0.00376939
0.00393701
0.0034839
0.00386689
0.00379561
0.00398058
0.00345878
0.00358373
0.00409251
0.00351294
0.00362858
0.0042248
0.00410682
0.00407176
0.00191254
0.000118146
5.5244e-06
0.000556113
0.00239592
0.00343447
0.00376546
0.00406012
0.00395415
0.00415413
0.0045627
0.00488053
0.00443675
0.00477348
0.00482665
0.00465656
0.00458231
0.0043741
0.00397323
0.00407122
0.00428633
0.00390772
0.00356001
0.00399169
0.00447007
0.00354802
0.00385435
0.00441882
0.00383462
0.00380124
0.0037772
0.0042119
0.0042307
0.0040388
0.00379457
0.00361721
0.00368869
0.00358583
0.00416213
0.0040653
0.00381639
0.00382122
0.00381779
0.00337588
0.00355472
0.00364067
0.004089
0.00340515
0.00339259
0.00360223
0.00355885
0.00370032
0.00458643
0.00394998
0.00397835
0.0018417
0.000114025
5.84282e-06
0.000602424
0.00283912
0.00393377
0.00426954
0.00387881
0.00368246
0.00384274
0.00414419
0.00474471
0.00481729
0.00439376
0.00430577
0.00442021
0.00425641
0.00389109
0.00386823
0.00380722
0.00407624
0.00456228
0.00389258
0.00388304
0.00436883
0.00364795
0.00417134
0.00447408
0.00400436
0.00408047
0.00371802
0.00413826
0.00420207
0.00370025
0.00365281
0.00415684
0.00371985
0.00386985
0.00422173
0.0037374
0.00374648
0.00413781
0.00433396
0.00335976
0.00343556
0.00362517
0.00386776
0.00345085
0.00326278
0.0036808
0.00382924
0.00380437
0.00412655
0.00387675
0.00384818
0.00199705
0.000116849
5.79862e-06
0.000561211
0.00242128
0.00376278
0.00484609
0.00422729
0.00369707
0.00368611
0.00400543
0.00436532
0.00476404
0.00430331
0.00436719
0.00475716
0.00417605
0.00466721
0.0038964
0.00370475
0.00405764
0.0041314
0.00444378
0.00457421
0.00404846
0.00460052
0.00398363
0.00444441
0.00376724
0.00364201
0.00369867
0.00377162
0.00366007
0.00353347
0.00375352
0.00422912
0.00411894
0.00385139
0.00370988
0.00365924
0.00409013
0.00382282
0.00411287
0.00339696
0.00348109
0.00372589
0.00384149
0.00388657
0.00331959
0.00373337
0.00383777
0.00390216
0.00385174
0.00396048
0.0034081
0.00171692
0.000113545
5.74704e-06
0.00055481
0.00293036
0.00371443
0.00443943
0.00433318
0.0037481
0.0036917
0.00390413
0.00424278
0.00440298
0.00420719
0.00482467
0.00431121
0.00415214
0.004509
0.00403928
0.00376446
0.00406759
0.00437659
0.004469
0.0046242
0.00398859
0.00414632
0.00391293
0.00413201
0.00382324
0.00375007
0.00374053
0.00393354
0.00395591
0.00352539
0.00378943
0.00403056
0.00439032
0.00385138
0.00397258
0.00413482
0.00413727
0.00365993
0.00361668
0.00335408
0.00347537
0.00387087
0.003758
0.00368376
0.0034209
0.00380625
0.00402583
0.00451106
0.00375715
0.00386632
0.00321543
0.00169035
0.000117665
5.81829e-06
0.000570834
0.00286973
0.00377259
0.00466437
0.00442805
0.00423604
0.00405891
0.00388737
0.00430021
0.00441017
0.00447185
0.00467246
0.00457226
0.00438383
0.00401594
0.00408303
0.00399623
0.00410991
0.00443478
0.00426433
0.0043742
0.00399493
0.00411762
0.00400907
0.00393432
0.00389859
0.00391412
0.00385078
0.00370899
0.00379583
0.00355825
0.00389633
0.0038726
0.0039298
0.00391794
0.00409129
0.00432554
0.00380461
0.00350317
0.00338081
0.00332583
0.00361962
0.00407224
0.00389008
0.0036722
0.00369981
0.00384696
0.00399173
0.00421125
0.00387227
0.00418851
0.00339371
0.00193876
0.000124081
6.00151e-06
0.000614877
0.00263368
0.00380862
0.00411297
0.00418355
0.00444837
0.00453372
0.00395305
0.00463942
0.00420898
0.00420796
0.00428671
0.00423086
0.00457314
0.00414709
0.00398636
0.00412496
0.00472668
0.00403054
0.004065
0.00456179
0.00399972
0.00422015
0.00451002
0.00395214
0.00406065
0.00405405
0.00387017
0.00381959
0.00399872
0.00387481
0.00491809
0.00442392
0.00396272
0.00388176
0.00440518
0.00398911
0.00360022
0.00344583
0.00354524
0.00368256
0.00363326
0.00422482
0.0040029
0.00376302
0.0038139
0.00404673
0.00406638
0.00407
0.00388427
0.0038412
0.00398738
0.00227067
0.000132468
5.57931e-06
0.000542397
0.00253385
0.003746
0.00496594
0.00431062
0.00411605
0.00417365
0.00462732
0.00412656
0.00410728
0.00432217
0.00441246
0.00437575
0.00464582
0.003862
0.00460242
0.00417372
0.0042032
0.00409228
0.00415897
0.0041211
0.00403291
0.00425478
0.00441951
0.00408009
0.0047772
0.0045494
0.00421475
0.00408426
0.00396294
0.00381944
0.00464538
0.0041461
0.00412325
0.0039165
0.00407695
0.00410316
0.00352578
0.00350044
0.00351216
0.00337895
0.00349941
0.00395716
0.00418127
0.00446786
0.00424452
0.00474726
0.00418967
0.00400237
0.00406826
0.00359103
0.00339701
0.00197123
0.000132619
5.60289e-06
0.000554303
0.00254994
0.00373338
0.00455584
0.00411323
0.00408039
0.00404414
0.00445914
0.00402921
0.00410455
0.00430169
0.00474514
0.00427417
0.00475202
0.00373083
0.0043203
0.00430382
0.00409668
0.00400937
0.00454969
0.00421626
0.00418756
0.00422911
0.00456767
0.00428875
0.00432975
0.00406147
0.00403814
0.00433152
0.00403872
0.00418769
0.00419536
0.00434503
0.00408137
0.00402841
0.00387027
0.00400687
0.00361575
0.00353505
0.00349634
0.00332659
0.00390023
0.00374923
0.0044511
0.00401937
0.00461225
0.00441334
0.0044597
0.0040162
0.0039529
0.00346723
0.00336277
0.00222815
0.000140175
5.7701e-06
0.000569239
0.00289934
0.00382671