/*--------------------------------*- C++ -*----------------------------------*\
  =========                 |
  \\      /  F ield         | OpenFOAM: The Open Source CFD Toolbox
   \\    /   O peration     | Website:  https://openfoam.org
    \\  /    A nd           | Version:  7
     \\/     M anipulation  |
\*---------------------------------------------------------------------------*/
FoamFile
{
    version     2.0;
    format      ascii;
    class       volScalarField;
    location    "5";
    object      nut;
}
// * * * * * * * * * * * * * * * * * * * * * * * * * * * * * * * * * * * * * //

dimensions      [0 2 -1 0 0 0 0];

internalField   nonuniform List<scalar> 
17475
(
2.57352e-05
0.000189098
0.000188072
0.000188189
0.000188068
0.00018813
0.000188053
0.000188041
0.000188053
0.000188219
0.000187899
0.000187826
0.000188124
0.000187981
0.000187957
0.000188081
0.000188028
0.00018786
0.000187955
0.000187991
0.000187988
0.000187952
0.000187971
0.000187937
0.000187936
0.000187938
0.000188054
0.000187986
0.000187863
0.000187926
0.000187951
0.000188105
0.000187972
0.000188063
0.000187987
0.00018805
0.000188068
0.000188036
0.000187896
0.000188023
0.000187963
0.000187974
0.00018798
0.000187992
0.000188005
0.000187989
0.000187976
0.000188054
0.000188167
0.000188031
0.0001879
0.000188003
0.000188088
0.000188282
0.000151411
6.65288e-07
0.000117157
0.000169232
0.000178217
0.000178155
0.000179636
0.000174723
0.000174501
0.000173352
0.000174043
0.000171289
0.000172867
0.000175948
0.000173794
0.000170955
0.000176064
0.000173478
0.000171901
0.000176566
0.000174697
0.000175169
0.00017648
0.000177414
0.000173129
0.000174795
0.000171116
0.000177333
0.000175188
0.000173561
0.000173442
0.000174167
0.000177343
0.000174512
0.000176527
0.000175926
0.000176418
0.00017769
0.000179432
0.000175558
0.000177546
0.000175305
0.000174995
0.000175527
0.000175541
0.000174169
0.000174939
0.00017534
0.000177273
0.00017892
0.000176007
0.000173006
0.000173527
0.000175684
0.000150869
1.61691e-05
9.86056e-08
5.90148e-05
0.000152185
0.000168067
0.000165897
0.000167866
0.000161382
0.000158779
0.000158372
0.000158615
0.0001794
0.000173558
0.000167427
0.000159848
0.000165005
0.000165798
0.000158516
0.000171779
0.000160065
0.000168933
0.000164316
0.000164977
0.000169034
0.000160566
0.000174238
0.000168351
0.000167298
0.000171664
0.000161218
0.000167618
0.000160121
0.00016994
0.000160873
0.000166117
0.000178886
0.000160439
0.000161333
0.000169364
0.000169305
0.000172073
0.000166879
0.000178167
0.000177998
0.00017197
0.000164064
0.000167384
0.000168406
0.00016059
0.000169502
0.000159337
0.000160747
0.000162116
0.000162492
0.000103202
3.15837e-06
3.26936e-08
3.14487e-05
0.000136231
0.000207664
0.00019606
0.000212609
0.000209256
0.000194005
0.000196954
0.00019246
0.000197237
0.000197627
0.00018403
0.000183934
0.000185109
0.000185835
0.000219716
0.000217036
0.000209535
0.000177765
0.000191359
0.000187868
0.000178219
0.000181702
0.000198228
0.000180346
0.000173557
0.000175479
0.000181127
0.000202375
0.00018252
0.000174535
0.00018024
0.000176364
0.000189376
0.000184326
0.000183008
0.00017945
0.000182885
0.000175438
0.000187519
0.00018822
0.000178429
0.000176658
0.000172728
0.000175488
0.000178455
0.00018849
0.000176268
0.000176117
0.00018178
0.000180195
0.000154342
7.74216e-05
1.35155e-06
1.79262e-08
1.85995e-05
0.000132913
0.000242616
0.000302474
0.000318878
0.000308871
0.000357411
0.000334935
0.000317245
0.000323296
0.000323279
0.000335843
0.000272099
0.000255782
0.000295497
0.000289111
0.000247579
0.00024033
0.000233056
0.000253256
0.000248232
0.00022666
0.000237591
0.000285987
0.000296873
0.000231417
0.000218366
0.000261637
0.000264302
0.000236425
0.00022955
0.00024537
0.000231844
0.000238021
0.000292628
0.000238198
0.000231959
0.000246708
0.000265985
0.000234204
0.000244312
0.000271632
0.000231941
0.000296746
0.00029044
0.000242867
0.000245817
0.000238029
0.000237853
0.000228926
0.0002167
0.00016883
5.92067e-05
9.29797e-07
1.45224e-08
1.56381e-05
0.000138507
0.000335961
0.000477682
0.000400306
0.000471309
0.000441771
0.000439204
0.000387176
0.000467677
0.000461671
0.000458835
0.000459231
0.000466619
0.000390707
0.000367833
0.000380692
0.000318287
0.00031127
0.000319181
0.000328897
0.000299007
0.000318336
0.000390661
0.000339162
0.000299812
0.000293191
0.000309269
0.000315297
0.000324565
0.000352418
0.000357157
0.00032705
0.000332867
0.000408267
0.000319325
0.000309866
0.000319501
0.000366469
0.000341467
0.00034898
0.000324529
0.000301368
0.000341088
0.000345765
0.00037196
0.000395666
0.000472659
0.000332721
0.000312683
0.000313352
0.000205442
6.28186e-05
9.86102e-07
1.48835e-08
1.67223e-05
0.000159398
0.000398169
0.00046156
0.000515273
0.000482141
0.000464486
0.000548656
0.000444664
0.000571511
0.000526818
0.00045543
0.000546481
0.000515175
0.000482603
0.000420877
0.000391888
0.000368032
0.000418435
0.000373112
0.000356903
0.000401422
0.000407586
0.000397964
0.000417614
0.00033959
0.000382644
0.000379671
0.000350358
0.000390943
0.000401081
0.000407807
0.000402014
0.000440127
0.000416519
0.000381605
0.000382165
0.000481124
0.000425936
0.00039242
0.000397634
0.000458709
0.000375117
0.000390706
0.000434133
0.000399123
0.000475083
0.000481324
0.000386411
0.000373292
0.000333299
0.000238477
7.25705e-05
1.14436e-06
1.64693e-08
2.11927e-05
0.000212365
0.000454581
0.000549486
0.00049296
0.000495275
0.000459125
0.00055189
0.000500832
0.000569627
0.000571257
0.000491444
0.000513614
0.00056356
0.000591763
0.000488153
0.000409617
0.000383702
0.000424309
0.000390091
0.000400455
0.000501281
0.000493055
0.000484107
0.000432377
0.000378049
0.00039363
0.000413213
0.000463136
0.000517694
0.00048605
0.000443077
0.00044758
0.000474101
0.000441605
0.000389615
0.00042087
0.000470262
0.000501892
0.000578516
0.000457455
0.000458604
0.000412674
0.000425499
0.000449214
0.000412139
0.000469289
0.00050855
0.000420112
0.000384191
0.000346366
0.000300841
9.52558e-05
1.42047e-06
1.70989e-08
2.04882e-05
0.000265397
0.00052271
0.000539072
0.000497931
0.000524229
0.000495006
0.000524837
0.000529504
0.000578835
0.000555059
0.000521073
0.000508888
0.000557885
0.000597336
0.000545868
0.000433373
0.000415442
0.000438614
0.000421306
0.000456751
0.000468604
0.000471697
0.000461124
0.000499678
0.000446882
0.000425587
0.000426167
0.000430882
0.000572873
0.000445103
0.000554648
0.000480137
0.000521559
0.000476689
0.000460644
0.000475259
0.000500953
0.000499476
0.00051959
0.000567806
0.000489961
0.000488953
0.000449649
0.00044025
0.00053961
0.000487456
0.000566348
0.000444758
0.00039376
0.000490532
0.00031761
0.00015409
1.77005e-06
1.67594e-08
2.14819e-05
0.000256584
0.000507693
0.000537965
0.000516305
0.000623298
0.000520865
0.000503993
0.000533632
0.000617557
0.000637013
0.000538794
0.000513436
0.000604611
0.00068068
0.000574184
0.000488151
0.000456917
0.000471025
0.000435128
0.000479722
0.00047147
0.000487733
0.000455452
0.000453511
0.000447893
0.000443469
0.000457641
0.000436766
0.000516014
0.000444658
0.000537845
0.000515277
0.000524923
0.000499372
0.000558387
0.000569802
0.000538216
0.000519785
0.000552362
0.000593418
0.000509829
0.000477181
0.000452645
0.000442675
0.000502015
0.000592843
0.00051959
0.000444938
0.000401305
0.0004455
0.000326788
0.000131537
1.80653e-06
1.73775e-08
2.25157e-05
0.000228122
0.000475611
0.00054959
0.000529701
0.000578532
0.000546334
0.000662574
0.000540396
0.000695958
0.000630407
0.000563099
0.000532868
0.000601024
0.000652291
0.000549124
0.000463136
0.000452106
0.000488299
0.000499382
0.000538915
0.000490584
0.000535877
0.000451153
0.000466244
0.000441596
0.000458814
0.000487679
0.000495724
0.000473967
0.000462051
0.000518235
0.000507543
0.000548267
0.000520313
0.000528328
0.000577399
0.000544174
0.000540368
0.000518315
0.000584431
0.000494367
0.000488919
0.000448742
0.000458833
0.000530403
0.000559922
0.000500989
0.00046514
0.000512125
0.000471255
0.000350794
0.000153742
1.90264e-06
1.84787e-08
2.34966e-05
0.000221904
0.000463641
0.000593459
0.000677073
0.000555932
0.000604441
0.000642318
0.000578893
0.000625877
0.000616141
0.000628744
0.000586127
0.000567593
0.000627151
0.000600208
0.000462402
0.000465998
0.000493252
0.00052121
0.000542208
0.000532486
0.000501081
0.000537875
0.000547673
0.000554166
0.000555609
0.000509268
0.000449922
0.000475887
0.000482663
0.000490891
0.000513873
0.000571532
0.000561901
0.00051311
0.000582307
0.000609509
0.000560488
0.000502133
0.000611989
0.000549892
0.000499524
0.000451236
0.000461463
0.000547006
0.000561034
0.000499882
0.000470036
0.000480701
0.000517362
0.000370291
0.00018489
2.16878e-06
1.98086e-08
2.3964e-05
0.000216669
0.00047912
0.000693303
0.000624264
0.000596912
0.000599493
0.000601291
0.00062196
0.00060845
0.000549884
0.000566305
0.000576985
0.000546536
0.000536703
0.000546
0.000468379
0.000533025
0.000508998
0.000598391
0.000499723
0.000511402
0.000490484
0.000584513
0.000534879
0.000483526
0.000493505
0.000515372
0.000438659
0.000441973
0.000476153
0.000487453
0.000515891
0.000504276
0.000501665
0.000495988
0.000514714
0.000544943
0.000536894
0.000485347
0.000547445
0.00059469
0.000500176
0.000571326
0.00046616
0.000537862
0.000554945
0.00049388
0.000483995
0.000483984
0.000518269
0.000397317
0.000178688
2.36525e-06
2.13885e-08
2.8072e-05
0.000251074
0.000489332
0.000616653
0.000647816
0.00067665
0.000683637
0.000583058
0.000609471
0.000560979
0.000526961
0.000558807
0.000556308
0.000598012
0.000553018
0.000519174
0.000507079
0.000505904
0.000510682
0.000522506
0.00049244
0.000499726
0.000497896
0.000552696
0.000497447
0.000491475
0.00049155
0.000609822
0.000448226
0.000415619
0.000468936
0.000534872
0.000582169
0.000488284
0.000504945
0.000519216
0.000561081
0.000584458
0.000563461
0.000457213
0.000493922
0.000561759
0.00049913
0.000503478
0.000488565
0.000487677
0.000532878
0.000545671
0.000552427
0.000490569
0.000452363
0.000402613
0.000168042
2.12419e-06
2.5142e-08
3.48597e-05
0.000324835
0.000516966
0.000589388
0.000613094
0.000661046
0.000674979
0.000632128
0.000522784
0.000531738
0.000546884
0.000649471
0.000569952
0.00058698
0.000514445
0.00047784
0.000525818
0.000514308
0.000537253
0.000515192
0.000511521
0.000500107
0.000482188
0.000525354
0.000469392
0.000470342
0.000502906
0.000559589
0.000469818
0.000418099
0.000445456
0.000480359
0.000560199
0.000490275
0.000485996
0.000555342
0.000601776
0.000570911
0.000536076
0.000450589
0.000497324
0.000553252
0.000496824
0.000508266
0.000577037
0.00047053
0.000494524
0.000655045
0.000629499
0.000504857
0.000480122
0.000464161
0.000159438
2.15421e-06
2.63608e-08
3.80285e-05
0.000349336
0.000519509
0.000599619
0.000588064
0.000664307
0.000620834
0.000576366
0.00051998
0.000517064
0.000555653
0.000592147
0.000598226
0.000512656
0.000458699
0.000454079
0.00050589
0.000536906
0.000549915
0.000499257
0.000505311
0.000500071
0.000477297
0.000496302
0.000466897
0.000457703
0.00050929
0.000534996
0.000517112
0.000488179
0.000442349
0.00049779
0.000515245
0.000549527
0.000523385
0.000579318
0.000551309
0.000551341
0.000553954
0.00045577
0.000558328
0.000523111
0.000513971
0.000565794
0.000544567
0.000485327
0.000587489
0.000571941
0.000603447
0.00055977
0.000445944
0.000444465
0.000169305
2.12336e-06
2.45867e-08
3.46717e-05
0.000310407
0.000519518
0.000553857
0.000636311
0.000653779
0.000626688
0.000580145
0.000538268
0.000533894
0.000609088
0.00059955
0.000560198
0.000476728
0.00045663
0.000457126
0.000512466
0.000546376
0.00054648
0.000481054
0.000535956
0.000506416
0.000477103
0.000478203
0.000467936
0.000274589
0.00017251
0.000177463
0.000329088
0.000416516
0.000412494
0.000418437
0.000466131
0.00051727
0.00050644
0.000524931
0.000532869
0.000546862
0.000517568
0.000460874
0.000563294
0.000506879
0.000497597
0.00053361
0.000554246
0.000498085
0.000594363
0.000560345
0.000604838
0.000482401
0.000422585
0.000419698
0.000196623
2.24029e-06
2.01263e-08
3.49633e-05
0.000299809
0.000506595
0.000562293
0.000583517
0.000622285
0.000673692
0.000569065
0.000539003
0.000541684
0.000612979
0.000714642
0.000504103
0.00045944
0.000468862
0.000473169
0.00054362
0.000591146
0.000528264
0.00048208
0.000553178
0.00042244
0.000370233
0.000110643
3.0053e-05
1.08918e-08
1.48347e-07
9.85263e-05
0.000251249
0.000347196
0.000455169
0.00048704
0.000491302
0.000543981
0.000512809
0.000582685
0.000529936
0.000464868
0.000539273
0.000494256
0.000487498
0.00050765
0.000598999
0.000526938
0.000550858
0.000568801
0.000537441
0.00050176
0.000416711
0.000379471
0.000161231
2.19228e-06
6.25185e-09
2.40062e-05
0.00027848
0.000520171
0.000560209
0.000559646
0.000537057
0.00056504
0.000538904
0.000527727
0.000526824
0.000574163
0.000599499
0.000483065
0.000473823
0.000456247
0.000469494
0.000511788
0.000536562
0.000532909
0.00043194
0.000463227
0.000374102
0.000185828
1.53121e-05
2.21633e-09
6.86339e-05
0.000290851
0.000430757
0.000471451
0.000525247
0.000510029
0.000486009
0.000527499
0.000491321
0.000451853
0.0004848
0.000497634
0.000549202
0.00055786
0.000552984
0.000560272
0.000522877
0.000531169
0.000522847
0.00051417
0.000513207
0.000362181
0.00015784
1.90585e-06
1.59339e-08
3.90016e-05
0.000321637
0.000450645
0.000502457
0.000492675
0.000457822
0.000488267
0.00051171
0.000503845
0.000505241
0.000547915
0.000499966
0.000437808
0.000445356
0.000451877
0.000411986
0.000502343
0.000452101
0.000452537
0.000401213
0.000396699
0.000302
8.65421e-05
2.9333e-06
2.84578e-05
0.000217122
0.000410173
0.000414893
0.000422145
0.000419524
0.000451406
0.000458802
0.000437615
0.000419138
0.000470172
0.00047104
0.000495795
0.000526999
0.000564869
0.000526927
0.000488196
0.000478222
0.000511478
0.00049281
0.000475937
0.00042435
0.000212893
3.95183e-06
3.05359e-08
4.05934e-05
0.000241671
0.000414378
0.000384827
0.00040139
0.000380635
0.000418614
0.000433243
0.000437033
0.000420321
0.000461434
0.000469314
0.000453031
0.00040925
0.000359931
0.000399773
0.000421863
0.000398664
0.000431714
0.000382959
0.000340988
0.000242466
6.70699e-05
4.38572e-06
7.39209e-09
3.16982e-07
3.78067e-05
0.000178908
0.000380518
0.000413106
0.000378692
0.000395976
0.000406913
0.000415148
0.000398581
0.000414505
0.000386911
0.0004656
0.000442215
0.000445633
0.000436892
0.000434268
0.000445265
0.000478419
0.00048183
0.000422658
0.000471782
0.000380302
0.000169475
3.08636e-06
2.59318e-08
3.50155e-05
0.000235978
0.000318383
0.000357348
0.000383393
0.000364323
0.000364751
0.000371819
0.000409555
0.000368353
0.000377498
0.000379424
0.000360986
0.000345646
0.000370059
0.000317589
0.000341235
0.000323513
0.000344766
0.000338899
0.000295707
0.000222649
9.4417e-05
2.54512e-05
4.41963e-06
1.43655e-06
2.67959e-06
1.38276e-06
1.79129e-06
9.71178e-06
5.74526e-05
0.000190861
0.000312809
0.000350999
0.000357185
0.000358139
0.00033928
0.000362814
0.000352234
0.000384127
0.000365231
0.000412411
0.000416074
0.000390243
0.00038155
0.00037966
0.000399502
0.000410697
0.000393045
0.000404166
0.000390681
0.000354199
0.00015762
2.55756e-06
1.99918e-08
2.61049e-05
0.000193651
0.00031173
0.000336517
0.00034657
0.00034792
0.000358605
0.000377328
0.000368135
0.000372909
0.000376817
0.000359188
0.000356546
0.000335402
0.000344137
0.000347206
0.000408383
0.000369651
0.000350638
0.000321204
0.000372446
0.000243268
0.000144225
0.000105804
3.25547e-05
2.77246e-05
4.92828e-05
3.15546e-05
2.03541e-05
5.09869e-05
0.000124962
0.000268741
0.00029185
0.000316945
0.000358384
0.000303396
0.000333957
0.000382084
0.000361186
0.000329357
0.00039436
0.000409623
0.000412496
0.000427746
0.000442993
0.000348424
0.000370317
0.000373739
0.000410823
0.000365091
0.000342861
0.000287088
0.000133521
2.06324e-06
1.8505e-08
2.36588e-05
0.000200909
0.000384891
0.000384581
0.00041318
0.000489215
0.000484074
0.000452275
0.00042598
0.000552856
0.000496495
0.000407618
0.000376944
0.000366095
0.000422007
0.000395263
0.000393627
0.000409748
0.000409265
0.00041991
0.000394027
0.000282222
0.000232363
0.000184485
0.000148623
9.72993e-05
0.000122495
9.3289e-05
8.68132e-05
0.000145873
0.000190187
0.000297443
0.000304507
0.000362028
0.000383804
0.000359724
0.000350651
0.000341092
0.00038133
0.00034954
0.000377717
0.000386836
0.00040435
0.000437216
0.000507087
0.000427568
0.00039837
0.000483752
0.000443862
0.000404322
0.000416233
0.000316417
0.000146224
2.04013e-06
1.8833e-08
2.55044e-05
0.000234338
0.000415154
0.000417699
0.000430626
0.00047493
0.000511696
0.000556218
0.000500326
0.000575104
0.000523039
0.000430789
0.000413707
0.00039216
0.000442367
0.000444252
0.000389782
0.000400234
0.000381322
0.000416127
0.000398253
0.000334591
0.000316258
0.00029791
0.000306004
0.000245083
0.000241461
0.000207651
0.000212438
0.000270783
0.000288137
0.000340576
0.00035202
0.000363463
0.000389315
0.000396971
0.000376265
0.000381316
0.000393197
0.000344284
0.000401945
0.000424027
0.000410572
0.000499806
0.000509891
0.000450444
0.000400481
0.000445548
0.000421218
0.000440301
0.000434492
0.000360679
0.000128743
1.75434e-06
1.92327e-08
2.59115e-05
0.000225507
0.000468836
0.000432005
0.000459032
0.000567613
0.000604362
0.00053558
0.000528421
0.000525717
0.000496104
0.00045416
0.000524281
0.000470135
0.000444144
0.00043093
0.000392238
0.000396339
0.00037586
0.000395452
0.000413772
0.000396452
0.000418412
0.000411361
0.000384275
0.000413835
0.000354107
0.000360353
0.000366302
0.000361672
0.000350146
0.000402576
0.00038881
0.000427038
0.000432071
0.000441907
0.000430689
0.000446986
0.000452958
0.000413763
0.000404212
0.000481842
0.000414067
0.000469624
0.000497039
0.00046579
0.000421224
0.000465663
0.000557299
0.000482038
0.000430106
0.000368692
0.000124705
1.60775e-06
1.88665e-08
2.33807e-05
0.000219289
0.000474666
0.000433625
0.000471345
0.000573983
0.000559233
0.000542167
0.000560516
0.000532007
0.000480421
0.000466935
0.000481903
0.000503738
0.000496927
0.000449332
0.000438317
0.000417749
0.000398433
0.000406266
0.000424158
0.000400254
0.00041003
0.000468289
0.000432457
0.000452536
0.000413424
0.000426395
0.000447513
0.000461754
0.000411137
0.000378947
0.000418146
0.000449989
0.000464173
0.000492473
0.000534295
0.000444058
0.000443911
0.000441544
0.000449271
0.000468109
0.000438428
0.000549491
0.00051983
0.000509151
0.000467192
0.000484894
0.000559342
0.000496499
0.000455603
0.000367799
0.000122392
1.58953e-06
1.91004e-08
2.51692e-05
0.000280351
0.0004453
0.000457891
0.000478433
0.000519741
0.000589726
0.000603803
0.00057665
0.000535552
0.000556215
0.000500487
0.00049981
0.00048606
0.000523469
0.000458431
0.000482814
0.000433131
0.000403871
0.000417794
0.000434075
0.000413682
0.000432149
0.000519284
0.000477589
0.000497203
0.000506147
0.000470687
0.000567012
0.000546779
0.000476705
0.000410414
0.000437563
0.000455199
0.000484074
0.000586206
0.000518628
0.000435399
0.000466998
0.000492488
0.000475951
0.000483468
0.000450225
0.000493762
0.000569261
0.000563475
0.000478987
0.000585237
0.000545851
0.000489722
0.000489881
0.000379275
0.000125342
1.73463e-06
1.87928e-08
2.49566e-05
0.000247994
0.000439149
0.0005459
0.000517512
0.00053285
0.000566427
0.000600331
0.000592991
0.000640565
0.000514725
0.00061861
0.000557432
0.000498528
0.000503626
0.000491432
0.000574716
0.000517266
0.000453331
0.000445682
0.000439939
0.00045419
0.000487119
0.000531276
0.000540641
0.000546756
0.000490125
0.000496413
0.000528206
0.000589534
0.000519528
0.000445946
0.000500416
0.000475361
0.000515392
0.000538562
0.0004974
0.000442848
0.000483512
0.000504563
0.000517351
0.000541666
0.000462485
0.000545189
0.000540219
0.000533909
0.000548258
0.000546918
0.000513676
0.000492118
0.000503735
0.000378659
0.000125576
1.68678e-06
1.92626e-08
2.48036e-05
0.000232561
0.000492941
0.00058345
0.000558517
0.00053691
0.00053624
0.000566422
0.000632754
0.000604847
0.000500963
0.000585138
0.000541293
0.000521359
0.000505159
0.000498609
0.000569624
0.00060048
0.00048646
0.000476064
0.000467163
0.000545801
0.000596497
0.000530745
0.000520598
0.000558533
0.000502735
0.000515791
0.000586203
0.00057941
0.000480614
0.000443141
0.000483769
0.000493169
0.000590936
0.000575713
0.000581388
0.00050978
0.000523373
0.000489581
0.000602939
0.000580586
0.000539131
0.000534631
0.000530776
0.00051352
0.000569419
0.000581527
0.000481443
0.000537693
0.000561442
0.000372091
0.000124079
1.76366e-06
1.91772e-08
2.38146e-05
0.000234447
0.000492539
0.000643686
0.000613694
0.000584776
0.000521052
0.000554656
0.000574523
0.00054188
0.000516682
0.000548426
0.000571545
0.000550487
0.000628629
0.000515195
0.000543995
0.000572156
0.00050856
0.000484309
0.000498706
0.000527419
0.000560298
0.000526525
0.000517858
0.000504269
0.000537786
0.000555087
0.000598
0.000517861
0.000466766
0.000444083
0.000483357
0.000509035
0.000535434
0.000533503
0.000528819
0.000533637
0.000538815
0.000553779
0.000581019
0.000521693
0.000475334
0.000533273
0.000468287
0.000554201
0.000549461
0.000563543
0.000466521
0.000496852
0.000522952
0.000381983
0.00012286
1.66214e-06
1.98692e-08
2.55309e-05
0.000240691
0.000497236
0.000587766
0.000677074
0.00054986
0.000480915
0.000544381
0.000557393
0.000591183
0.000527408
0.000600992
0.00056788
0.000583382
0.000612832
0.000577641
0.000523288
0.00053306
0.000520511
0.000540124
0.000529518
0.000595752
0.00054204
0.000593523
0.00054274
0.000483541
0.000519454
0.00055149
0.000555757
0.000507009
0.000471535
0.000449303
0.000498554
0.000520811
0.000498497
0.00050003
0.000525159
0.000644391
0.000552184
0.000608515
0.000545325
0.000505377
0.000503458
0.000474157
0.000440399
0.000513056
0.000532372
0.000512488
0.000465517
0.000501006
0.000512989
0.000397862
0.000126146
1.74881e-06
2.16903e-08
2.95508e-05
0.000281251
0.000578519
0.000655798
0.000676615
0.000554512
0.000566374
0.000529498
0.000536384
0.000530338
0.000531498
0.000578223
0.000560276
0.000655949
0.000568027
0.000530233
0.000519956
0.000535429
0.000581259
0.000538502
0.000553528
0.000562925
0.000540515
0.000591573
0.00052673
0.000499871
0.000545437
0.000665743
0.000632408
0.000522053
0.000508085
0.000552234
0.00054868
0.000573057
0.000513239
0.000556627
0.000583182
0.00056947
0.000541357
0.000644054
0.000517501
0.000538137
0.000552542
0.000458338
0.0004494
0.000491342
0.000553442
0.000571929
0.000485378
0.000565904
0.000596973
0.000398385
0.000130757
1.71552e-06
2.23746e-08
3.23773e-05
0.0002815
0.000553578
0.000623864
0.000587908
0.000572037
0.000614039
0.000656009
0.000558816
0.000553535
0.000540065
0.000575115
0.000539546
0.000575115
0.000541608
0.000518921
0.000552277
0.000567793
0.000574246
0.000543813
0.000541783
0.000594084
0.000533472
0.000577567
0.000505242
0.000505317
0.000530382
0.000623288
0.00062706
0.000539842
0.000518576
0.000530376
0.00052248
0.000533755
0.000518836
0.000572991
0.000537172
0.000548227
0.000559378
0.000628613
0.000631901
0.000510345
0.000505275
0.00046647
0.000464208
0.000527624
0.000507807
0.000557273
0.000512613
0.000555031
0.000572695
0.000407418
0.000175406
1.75029e-06
2.15546e-08
2.93455e-05
0.000293867
0.000544314
0.00055478
0.000559677
0.000618599
0.000600645
0.0005798
0.000592659
0.000574559
0.000578596
0.000550103
0.000557961
0.000573183
0.000584778
0.000620333
0.000583865
0.000552355
0.000610579
0.000547063
0.000592767
0.000525939
0.000528491
0.000505471
0.000529284
0.000515095
0.000528135
0.00060996
0.000619117
0.000579397
0.000543097
0.000525501
0.000542543
0.000549504
0.000516611
0.000516245
0.000532843
0.000538853
0.000544101
0.000588219
0.000590578
0.000492794
0.000472497
0.000464156
0.00047917
0.000520171
0.000514424
0.000530732
0.000558111
0.000517983
0.000540255
0.000406202
0.000145332
1.71854e-06
2.12011e-08
2.80581e-05
0.000264642
0.000483915
0.000551798
0.000536321
0.000605248
0.000582705
0.000587155
0.000582518
0.000622375
0.000558101
0.000556022
0.000556806
0.000596244
0.000576087
0.000615865
0.000560908
0.000586623
0.000611397
0.000533372
0.000524999
0.000500462
0.000594773
0.000500329
0.000518991
0.000507049
0.000512731
0.000527115
0.000614691
0.0005977
0.000491246
0.000476532
0.000538782
0.000530916
0.000537341
0.000509148
0.000545128
0.000558326
0.000591567
0.000579503
0.00059667
0.000520736
0.000459826
0.00048422
0.0005363
0.00058272
0.000524698
0.000490976
0.000547468
0.000492219
0.000529665
0.000415529
0.000144667
1.84898e-06
2.093e-08
2.69633e-05
0.000261102
0.000449871
0.000535989
0.000571754
0.00061202
0.000593412
0.000604336
0.000554604
0.000570296
0.000546562
0.000617782
0.000610452
0.000608779
0.000585075
0.000599023
0.000582757
0.000552732
0.000590096
0.000577844
0.000580345
0.000510349
0.000577478
0.000514533
0.000589038
0.000507787
0.000551371
0.000512256
0.00059216
0.000538947
0.000513843
0.000454342
0.000491978
0.000495449
0.000432473
0.000535254
0.000526431
0.000504343
0.000511589
0.000519652
0.000581304
0.00051874
0.000473205
0.000499188
0.000583481
0.000555765
0.000571593
0.000535947
0.000518125
0.000549199
0.000524938
0.000418919
0.000164148
1.97076e-06
2.21586e-08
3.07586e-05
0.000294261
0.000479932
0.000573675
0.000578725
0.000616307
0.000600049
0.000605441
0.000592545
0.000634926
0.000562651
0.00058497
0.000617873
0.000677149
0.000582377
0.00054266
0.000542084
0.000514709
0.000521086
0.00057209
0.000561447
0.00056597
0.000537412
0.00049938
0.000513901
0.000510617
0.000545396
0.00049295
0.000591659
0.000602338
0.000461272
0.00043472
0.000465093
0.00047594
0.000471543
0.000570651
0.00054005
0.000505936
0.000504466
0.000503958
0.000561769
0.000577711
0.000513962
0.000503715
0.000556086
0.000509024
0.000531088
0.000494632
0.000482676
0.000523198
0.0005368
0.00043543
0.000147812
1.84769e-06
2.17875e-08
3.17954e-05
0.000280261
0.000463955
0.000588561
0.000563184
0.000556092
0.000604062
0.000613699
0.000621465
0.000605707
0.000569076
0.000571874
0.000605415
0.000658762
0.000600717
0.00052306
0.000550183
0.000501613
0.000503733
0.0005352
0.00051149
0.000551913
0.000506939
0.00057862
0.000568569
0.000525983
0.000493524
0.000496169
0.00058072
0.000593906
0.00047039
0.00043291
0.000460836
0.000502502
0.000424169
0.000513884
0.000516016
0.000583075
0.000552823
0.000501168
0.000507797
0.000527828
0.000519116
0.000624194
0.00050661
0.000488516
0.000549821
0.000468985
0.000477309
0.000522755
0.000671078
0.000452396
0.000148632
1.72628e-06
2.04908e-08
2.89805e-05
0.000273805
0.000435588
0.000519258
0.000544538
0.000555023
0.000624447
0.000621522
0.000660989
0.000614649
0.000598683
0.000658493
0.000615006
0.00063608
0.000630105
0.000538881
0.00061395
0.000564504
0.000491604
0.000489644
0.000483577
0.00051161
0.000495441
0.000517806
0.000499695
0.000532972
0.000594365
0.000495821
0.000507683
0.0005157
0.000487391
0.000492308
0.000465754
0.000496991
0.000477354
0.000484178
0.000509566
0.000532064
0.000513666
0.000502318
0.000480117
0.000497986
0.000528887
0.000596453
0.000483045
0.00051728
0.000552857
0.000463577
0.000482399
0.000538809
0.000605567
0.000466271
0.000166026
1.84252e-06
2.05512e-08
2.92058e-05
0.000240331
0.000492839
0.000503205
0.000548027
0.000574692
0.000649248
0.00069333
0.000758004
0.000619684
0.000639085
0.000706477
0.000617792
0.000677438
0.000590856
0.000537891
0.000596884
0.000577051
0.000528448
0.000527692
0.000481456
0.000506055
0.000494191
0.000516924
0.000515189
0.000530397
0.000562748
0.000583851
0.000525287
0.000496171
0.000508396
0.000542667
0.000469476
0.000517836
0.000464524
0.000598544
0.000514768
0.000542927
0.000509387
0.000543952
0.000473391
0.000514419
0.000510049
0.000546892
0.000470364
0.000476334
0.000555372
0.000462609
0.000490175
0.000568662
0.000549277
0.000529078
0.000150299
1.66697e-06
1.91351e-08
2.6505e-05
0.00024641
0.00045264
0.000517216
0.000550815
0.000531042
0.000581849
0.000656913
0.000717259
0.000649792
0.000682521
0.000689204
0.000664392
0.000646365
0.000615404
0.000556087
0.000556364
0.000592366
0.000529888
0.000482845
0.000549817
0.000656703
0.000496732
0.000525823
0.000606971
0.000535497
0.000529383
0.000516442
0.000578945
0.000567893
0.000521512
0.000496382
0.000473739
0.000490905
0.000494981
0.000567941
0.000552791
0.000505533
0.000507446
0.000515364
0.000448614
0.000474038
0.000492648
0.000556853
0.000456455
0.000449676
0.000484951
0.000471346
0.000503448
0.000631232
0.000524951
0.000512503
0.000145314
1.61612e-06
2.01628e-08
2.87274e-05
0.000295174
0.000519681
0.000613079
0.000532901
0.000493724
0.000529874
0.000580331
0.000685088
0.000699385
0.000617563
0.000570166
0.000621095
0.00059004
0.000542482
0.000536992
0.000534337
0.00056289
0.000611932
0.000528139
0.000543048
0.000640804
0.000511474
0.000575845
0.000623662
0.000556578
0.000561163
0.000509439
0.000569792
0.000568756
0.000488435
0.000483831
0.000556877
0.000501927
0.000527036
0.000576891
0.00050737
0.000498026
0.000544917
0.000568135
0.000443901
0.000468301
0.000493907
0.000535723
0.000462614
0.000433344
0.000497593
0.000515065
0.000513228
0.000568183
0.000517979
0.000493943
0.000157506
1.66301e-06
2.0309e-08
2.67924e-05
0.000256476
0.000477204
0.000688654
0.00058127
0.000520942
0.000507652
0.000556867
0.000626265
0.000679918
0.000604557
0.000620809
0.000662581
0.000580229
0.0006459
0.000553298
0.000523454
0.000565739
0.000542331
0.000603673
0.000643686
0.000587677
0.000648323
0.000559269
0.000631201
0.000534814
0.000507501
0.000514842
0.000520971
0.000496684
0.000476268
0.000507523
0.00058415
0.000546652
0.000521142
0.00050638
0.000488743
0.000545899
0.00051148
0.000533277
0.000448423
0.000479248
0.000521337
0.000536264
0.000520212
0.000441451
0.000505789
0.000524284
0.000522957
0.000516216
0.000523096
0.000430729
0.00013488
1.62204e-06
2.02725e-08
2.64772e-05
0.0003129
0.000510736
0.000624092
0.000628642
0.000539459
0.000510207
0.000535685
0.000605398
0.000626687
0.000597407
0.000688798
0.000600948
0.000565086
0.000615503
0.000569345
0.000530609
0.000570201
0.000600353
0.000609226
0.000651783
0.000579688
0.000591726
0.000553701
0.000589986
0.000544045
0.000538433
0.000523097
0.000546329
0.000549311
0.000474393
0.000517641
0.00056063
0.00058603
0.000515724
0.000539934
0.000549157
0.00055523
0.000497787
0.000479099
0.000447797
0.000484261
0.000553411
0.000518342
0.000489237
0.000457361
0.000522806
0.00055439
0.000618867
0.000500186
0.000509094
0.000413511
0.000132649
1.68843e-06
2.05286e-08
2.72926e-05
0.000308582
0.000525742
0.000661882
0.0006466
0.000605475