/*--------------------------------*- C++ -*----------------------------------*\
  =========                 |
  \\      /  F ield         | OpenFOAM: The Open Source CFD Toolbox
   \\    /   O peration     | Website:  https://openfoam.org
    \\  /    A nd           | Version:  7
     \\/     M anipulation  |
\*---------------------------------------------------------------------------*/
FoamFile
{
    version     2.0;
    format      ascii;
    class       volScalarField;
    location    "5";
    object      omega;
}
// * * * * * * * * * * * * * * * * * * * * * * * * * * * * * * * * * * * * * //

dimensions      [0 0 -1 0 0 0 0];

internalField   nonuniform List<scalar> 
17475
(
281.756
66.1426
66.739
66.7447
66.7467
66.7467
66.7473
66.747
66.747
66.7464
66.7454
66.7466
66.7458
66.7464
66.7475
66.7463
66.7468
66.7482
66.7459
66.7455
66.7494
66.7507
66.7436
66.7535
66.7288
66.7909
66.7919
66.7932
66.7947
66.7943
66.7919
66.7914
66.7902
66.7899
66.7897
66.7901
66.7889
66.7885
66.7907
66.8133
66.848
66.8829
66.9141
66.9441
66.9697
66.9934
67.0151
67.0361
67.0542
67.0727
67.0881
67.1025
67.1086
66.9723
79.5767
311.741
37.3242
30.7451
30.0212
29.9302
29.8972
29.8949
29.883
29.8862
29.895
29.8687
29.8659
29.8703
29.8907
29.8779
29.8777
29.8818
29.8889
29.8664
29.8654
29.8727
29.8805
29.8986
29.8841
29.8902
29.9242
29.9365
29.9479
29.9679
29.9661
29.9449
29.939
29.9253
29.9303
29.9371
29.949
29.9328
29.945
29.9296
29.9427
29.95
29.9778
29.9744
29.9943
29.9985
29.9979
30.0089
30.0185
30.0264
30.0645
30.0892
30.1098
30.3342
32.8018
97.6081
288.876
30.5078
20.3001
18.9502
18.7191
18.5739
18.5998
18.5885
18.5761
18.6255
18.5251
18.5039
18.506
18.608
18.5413
18.5406
18.531
18.5652
18.5246
18.5212
18.5032
18.4856
18.5617
18.5827
18.5752
18.5992
18.6096
18.627
18.6607
18.636
18.582
18.5901
18.5739
18.5863
18.6294
18.6595
18.5996
18.6121
18.5819
18.6319
18.5812
18.6464
18.6232
18.6211
18.6644
18.6463
18.6806
18.6638
18.661
18.7594
18.77
18.8246
19.5311
24.412
91.9096
288.974
26.2664
15.694
13.7129
13.2852
12.9771
12.9619
12.975
12.8869
12.9471
12.8193
12.786
12.8945
13.1328
12.926
12.8948
12.8855
12.9146
12.9852
13.1136
13.0571
13.0272
13.1602
13.2232
13.1483
13.1854
13.1574
13.2456
13.3462
13.2031
13.1384
13.1175
13.1668
13.1302
13.2144
13.1965
13.1115
13.085
13.0789
13.2425
13.1044
13.1784
13.2095
13.0927
13.2991
13.1775
13.2985
13.2964
13.2303
13.3976
13.3455
13.5316
14.5697
20.4258
81.1873
287.993
25.3286
13.5089
10.6781
9.89188
9.48993
9.49295
9.34494
9.51922
9.40791
9.37909
9.3377
9.50041
9.83504
9.52883
9.77207
9.57043
9.71514
9.75978
9.88947
9.87988
9.90952
10.0988
9.97305
9.9596
9.93524
10.0404
10.1989
10.2007
10.0152
9.99012
9.91101
9.97277
9.90743
9.91971
9.88436
9.87112
9.90411
9.94167
10.1945
10.1292
9.92777
10.3395
10.0375
10.0942
9.90666
9.95995
10.3297
10.3479
10.2556
10.1678
10.4138
11.7366
17.7302
76.2983
287.478
24.5991
12.0319
8.77141
8.11404
8.06741
7.6563
7.93761
7.92662
8.14101
7.71399
7.58615
7.62187
7.6761
7.56954
7.64775
7.66737
7.74118
7.84839
7.92402
7.99194
7.93132
8.11626
7.98399
7.85728
7.82043
8.00757
8.16484
8.16689
8.01053
8.01961
7.96971
7.96832
7.99318
7.95856
7.86433
7.88537
8.05586
8.16543
7.96532
8.08762
8.0168
8.05484
8.16077
8.14322
7.97693
7.98043
8.11803
8.21776
8.29466
8.2629
8.70132
9.74299
16.0036
73.6278
284.539
22.5672
10.4986
7.96923
7.60887
7.53236
7.28004
7.65607
7.40061
7.57465
7.22709
7.17489
7.23977
7.0838
7.1643
7.16114
7.31875
7.50366
7.49034
7.46782
7.56927
7.70775
7.90752
7.6229
7.4264
7.30967
7.50852
7.72502
7.69652
7.68703
7.45772
7.34803
7.51666
7.61452
7.40018
7.45172
7.51163
7.56203
7.53962
7.71444
7.59205
7.42806
7.46379
7.60916
7.58128
7.52622
7.57132
7.53464
7.55925
7.69014
7.79134
8.22754
8.99628
14.9382
71.9813
283.92
22.3577
10.173
7.7919
7.64681
7.32856
7.25091
7.60022
7.33179
7.26441
7.0567
7.08154
7.20891
7.06093
7.03604
7.18825
7.22427
7.42503
7.53461
7.49162
7.57647
7.54421
7.73735
7.56509
7.39325
7.32528
7.45454
7.62462
7.52626
7.48098
7.19035
7.25349
7.37019
7.51471
7.25422
7.45242
7.52402
7.44815
7.42644
7.17578
7.34868
7.3018
7.28392
7.51771
7.44382
7.45188
7.65518
7.49778
7.58168
7.66211
7.77337
8.13551
8.56908
14.1465
71.1316
284.256
22.0775
10.1529
7.6366
7.44961
7.37922
7.24746
7.19724
7.44237
7.24447
6.95558
7.11115
7.11901
7.0601
7.22415
7.09516
7.26009
7.29858
7.43756
7.51094
7.55339
7.68273
7.49636
7.36893
7.35662
7.34802
7.3344
7.32795
7.25413
7.35982
7.15171
7.1997
7.31874
7.32707
7.23201
7.28693
7.5727
7.38846
7.30645
7.28534
7.36352
7.21753
7.21175
7.40201
7.3626
7.46345
7.66828
7.44598
7.60127
7.72505
7.85693
8.08524
8.44565
13.6572
70.3533
288.242
21.8382
10.0664
7.57225
7.36573
7.46721
7.28963
7.10984
7.45686
7.21113
7.04009
7.02564
7.13877
7.22127
7.32639
7.04691
7.01413
7.25134
7.36589
7.3472
7.53357
7.40636
7.36659
7.15641
7.28311
7.40311
7.26809
7.06983
6.97757
7.19493
7.21682
7.195
7.24156
7.19452
7.2587
7.29415
7.23224
7.43198
7.23907
7.0287
7.30193
7.26064
7.20192
7.34314
7.40984
7.49046
7.58208
7.53883
7.53785
7.85062
7.90186
8.03804
8.27818
13.268
69.5832
289.801
21.6637
10.2357
7.64382
7.22814
7.46138
7.25715
7.17662
7.1874
7.23974
7.23673
7.09073
7.24035
7.27922
7.27509
7.11267
7.15005
7.35166
7.37676
7.30145
7.38297
7.25762
7.23998
7.13597
7.39623
7.45028
7.32507
7.08436
6.96152
7.13121
7.2663
7.17295
7.07921
7.24109
7.21927
7.33849
7.36445
7.39187
7.25949
6.92577
7.29083
7.28472
7.69458
7.36199
7.40728
7.45113
7.53184
7.58014
7.4984
7.65872
7.7591
7.96482
8.14013
12.9156
68.9699
287.513
21.5632
10.0755
7.72538
7.22739
7.25509
7.23013
7.08005
7.09996
7.11176
7.36922
7.28618
7.26774
7.35193
7.27908
7.25563
7.4199
7.52061
7.41242
7.4013
7.30674
7.23581
7.12053
7.21832
7.4029
7.40023
7.41579
7.25454
7.08591
7.25175
7.31363
7.18595
7.13955
7.26524
7.30127
7.38605
7.38225
7.45756
7.30999
7.09105
7.37541
7.17635
7.34427
7.31428
7.44391
7.52173
7.53016
7.51051
7.45412
7.58367
7.59563
7.75422
8.22407
12.7903
68.3368
287.946
21.4753
10.0648
7.77956
7.30956
7.2851
7.28097
7.10946
7.07894
7.15477
7.43322
7.3822
7.31943
7.28711
7.36245
7.41686
7.56511
7.50271
7.53706
7.4097
7.29675
7.36435
7.15841
7.23659
7.32283
7.38059
7.47527
7.30056
7.03467
7.32828
7.3865
7.13563
7.13018
7.27615
7.49755
7.4918
7.46397
7.49804
7.37229
7.25294
7.47804
7.42268
7.07111
7.31306
7.50101
7.55376
7.49277
7.46734
7.4326
7.45168
7.36537
7.67497
8.2778
12.714
67.825
285.86
21.333
9.86563
7.8372
7.27212
7.40944
7.24861
7.01292
7.17129
7.37651
7.3423
7.34324
7.36258
7.38613
7.28877
7.57479
7.66834
7.42155
7.48253
7.38956
7.3613
7.43795
7.30731
7.30247
7.25908
7.30673
7.32383
7.1575
6.81821
7.30517
7.45501
7.23625
7.26127
7.40347
7.68015
7.50141
7.34266
7.51647
7.46551
7.54923
7.72403
7.70096
7.40673
7.46384
7.64487
7.54662
7.53986
7.46904
7.44407
7.42978
7.44068
7.76313
8.32379
12.6782
67.6228
285.256
21.2898
9.55465
7.90165
7.36264
7.35527
7.24317
7.03958
7.27829
7.46213
7.39831
7.35506
7.24882
7.38466
7.36046
7.7443
7.6847
7.44885
7.417
7.29661
7.50776
7.44989
7.39364
7.50382
7.28163
7.35208
7.26851
7.05046
6.80319
7.19565
7.5063
7.46078
7.48856
7.60359
7.81729
7.63453
7.34381
7.5677
7.5414
7.75456
7.94144
7.88744
7.53219
7.57494
7.66994
7.56528
7.57067
7.5825
7.27986
7.42553
7.47106
7.89119
8.33234
12.6018
67.5953
286.368
21.1941
9.52392
7.8538
7.53621
7.3258
7.31964
7.26685
7.1786
7.40578
7.4531
7.20401
7.28783
7.35547
7.5321
7.89881
7.70627
7.48803
7.55182
7.49048
7.79527
7.69598
7.60883
7.71454
7.62825
7.57985
7.39777
7.14113
7.0384
7.24267
7.41184
7.76106
8.00165
7.88402
7.92439
7.63445
7.53085
7.59303
7.61262
7.7914
7.91834
7.87115
7.64969
7.48334
7.49239
7.39923
7.57189
7.47041
7.38264
7.43289
7.52768
7.99404
8.36245
12.5434
67.5103
293.503
21.0699
9.65642
7.64378
7.53761
7.30586
7.2411
7.22912
7.21824
7.34989
7.46628
7.16921
7.23813
7.59648
7.73797
7.97445
7.74127
7.5266
7.6296
7.75737
7.98528
8.031
8.08181
8.32372
8.26145
8.35683
11.7209
17.76
18.11
11.3544
9.89452
8.8369
8.72148
8.28189
8.09346
7.70729
7.68247
7.71384
7.53079
7.69154
7.81357
7.7681
7.88284
7.63276
7.48222
7.34661
7.58225
7.39735
7.40095
7.40627
7.64713
8.0933
8.3978
12.5931
67.5883
321.581
21.3217
9.70737
7.62369
7.47502
7.28834
7.37244
7.22432
7.22325
7.37206
7.51519
7.25261
7.26336
7.77
7.90945
7.85238
7.88265
7.601
7.73616
7.96131
8.23352
8.24203
9.8579
11.1786
27.7331
38.0814
1678.29
818.647
24.6785
15.0563
10.6393
8.71402
8.27074
7.9315
7.76723
7.89686
7.80582
7.7405
7.89553
7.83729
7.92405
7.82972
7.59141
7.39096
7.30663
7.52372
7.40406
7.37974
7.66949
8.10064
8.55895
12.6764
67.5934
470.76
23.7791
9.96127
7.82621
7.44965
7.60678
7.65005
7.61166
7.51361
7.55088
7.71976
7.55255
7.57627
8.06753
8.062
8.20668
8.24722
8.14106
8.06575
8.45249
8.88372
8.94902
10.646
18.0567
58.0654
2020.75
32.0307
12.7234
9.29799
8.86365
8.4239
8.26499
8.25947
8.16445
8.25938
8.18337
8.04082
7.99512
7.9224
7.65074
7.53548
7.58454
7.72502
7.79336
7.54354
7.71003
8.22956
8.74335
12.4164
67.7566
421.103
23.0883
11.3294
9.44839
9.12854
9.09601
9.29558
9.1374
8.98859
9.00806
9.40879
9.20672
9.25137
9.50821
9.45655
10.0124
10.2276
9.86936
9.82374
10.1019
10.7794
11.3441
13.4317
24.1894
71.4049
40.2805
15.3031
11.5253
10.8178
10.2417
10.1644
9.88615
9.72808
9.75945
9.76009
9.40405
9.2455
9.19017
8.96276
8.84289
8.74455
9.20042
9.08447
8.99551
8.94316
9.38362
9.64085
13.0066
67.4012
285.525
22.9503
12.8727
10.1403
11.17
10.6209
10.4406
10.8542
10.386
10.0719
10.5488
9.63522
9.70364
9.93184
10.6998
11.7658
10.4857
10.3922
10.3252
10.8242
11.6812
11.6569
14.7135
21.9377
32.8919
232.449
66.5541
26.2565
16.1869
11.6374
11.0311
10.7462
10.6755
10.2567
10.9693
10.351
10.3372
10.2445
9.86841
9.56287
9.50204
10.0471
10.2608
9.54292
9.42686
9.28727
10.9059
9.81128
10.0332
14.1314
67.4944
283.794
22.1641
12.2327
10.8723
10.2183
10.312
10.0289
10.2659
10.064
9.91697
10.2898
10.4217
10.4393
10.4857
10.9746
10.5827
11.1581
10.8783
11.554
11.2961
11.6357
12.0889
13.7652
17.836
25.3925
18.9167
23.2546
24.0468
26.5461
20.7361
23.1293
20.7949
14.2551
12.3992
11.4248
11.552
11.1054
11.0418
10.4775
10.7875
9.81036
10.4896
9.97356
10.3407
9.99448
10.1095
10.0204
10.0568
10.0447
9.93014
10.0148
9.55523
9.94431
13.7997
67.7201
287.637
22.1302
11.3695
9.92466
9.8378
9.65576
9.65685
9.54468
9.20241
9.29872
9.48696
9.18507
9.42314
9.45164
9.7863
9.62483
9.43664
9.47006
9.98882
10.6032
10.7049
10.5071
11.9857
13.5458
15.7151
14.1428
8.66878
7.16731
7.95453
11.3263
16.5062
15.3764
11.9274
11.5589
11.0808
10.4628
10.844
10.0555
9.6161
10.2097
9.81386
9.06897
9.03982
8.94881
9.03812
9.58341
9.979
9.39441
9.57486
9.39318
9.591
9.72888
10.1141
13.7021
67.9776
286.28
21.8366
10.8095
8.51812
8.2553
8.01274
8.04885
7.96764
8.2128
8.00831
7.98652
8.4197
8.57554
8.69184
8.47209
8.94221
8.66948
8.76424
8.91816
8.82355
9.0708
9.58933
10.0966
10.8773
12.7625
11.9625
8.90048
6.7397
7.66378
10.9556
13.0236
11.7009
10.8523
10.4291
9.07011
8.96868
9.04566
8.94693
9.20981
8.47809
8.65106
8.5028
8.44915
8.35506
8.19635
7.98987
8.12925
8.16247
8.04336
7.99132
8.33188
8.60592
9.2268
13.1831
68.0641
287.888
21.7326
10.3849
8.02339
7.69848
7.63974
7.69485
7.66856
7.80597
7.65696
7.71974
8.13729
8.10067
8.10028
7.96788
8.47063
8.5402
8.56137
8.53582
8.59718
8.65236
8.93388
8.79715
9.14903
9.76163
10.0226
8.70514
6.4637
7.46666
9.97772
10.5415
9.37495
8.98
8.72072
9.07002
8.64785
8.38567
8.2058
8.22312
8.22771
8.77876
8.29594
8.36352
8.18685
8.07698
7.62078
7.58346
7.95932
7.90456
8.56061
7.9877
8.04148
8.13825
12.8082
67.9512
286.068
21.5991
10.2288
7.97802
7.65833
7.46971
7.56274
7.41858
7.53985
7.55559
7.60895
7.80233
7.89102
7.73494
7.87106
8.07021
8.15096
8.29712
8.28341
8.41624
8.51804
8.4681
8.34174
8.40427
8.14407
8.47589
7.63923
6.47022
7.28117
8.32687
9.03698
9.29895
8.75529
8.26696
8.0077
8.26066
8.03613
7.80458
7.9589
8.14254
7.8253
8.14273
8.16941
8.05654
7.85515
7.60726
7.54567
7.81854
7.77515
7.74869
7.96813
7.89665
8.05227
12.816
68.2562
284.593
21.6011
10.133
7.89016
7.7329
7.45754
7.68473
7.38278
7.53343
7.33351
7.54139
7.77001
7.8082
7.70303
7.75887
7.81428
8.06134
7.89275
8.02295
8.42264
8.34368
8.23885
8.27047
8.07948
7.87772
7.65238
7.28029
6.55116
7.03522
7.63532
7.97241
8.13682
8.41997
8.13942
7.83988
7.74196
7.80298
7.75094
7.81605
7.84817
7.75892
7.83921
7.97509
7.89824
7.67895
7.603
7.62652
7.80045
7.79919
7.62847
7.82336
7.70025
8.04954
12.8662
68.6002
289.36
21.4568
10.0107
8.03749
7.65959
7.55381
7.56333
7.51977
7.64343
7.37961
7.59491
7.7202
7.70744
7.65066
7.72975
7.69169
7.80209
7.80988
7.96956
8.30222
8.11129
8.1544
8.10548
7.89498
7.68991
7.50583
7.15702
6.66054
6.97371
7.39902
7.5598
7.96922
8.05721
8.01031
7.86169
7.65292
7.41951
7.79222
7.86661
7.56398
7.47601
7.60312
7.59629
7.82471
7.68904
7.61554
7.63496
7.90682
7.70822
7.7581
7.64037
7.60607
7.89061
12.8596
68.9772
287.783
21.3738
9.90276
7.99837
7.58029
7.44679
7.41989
7.56572
7.55134
7.34219
7.57732
7.72817
7.58617
7.63411
7.62855
7.45687
7.68516
7.76752
7.80506
7.98348
8.04989
8.07471
7.77997
7.63603
7.49006
7.16335
7.17253
6.71781
6.90255
7.34492
7.48346
7.7233
7.86721
7.82053
7.82196
7.71236
7.36873
7.58811
7.92427
7.63788
7.44028
7.48058
7.49091
7.716
7.72297
7.74965
7.62602
7.76796
7.67456
7.66305
7.5593
7.54733
7.92305
12.8341
69.3354
287.016
21.2488
9.86714
7.83366
7.49216
7.27724
7.47857
7.5691
7.48915
7.3534
7.6486
7.73179
7.61549
7.60666
7.46904
7.42574
7.61616
7.69898
7.53271
7.82549
7.92568
7.82573
7.51382
7.41482
7.31947
7.27204
7.14659
6.72461
6.79405
7.20065
7.38814
7.61311
7.80513
7.57568
7.86486
7.66734
7.51061
7.60753
7.83484
7.66034
7.76314
7.5388
7.54309
7.75796
7.7701
7.84197
7.70012
7.46888
7.53418
7.68652
7.62314
7.55967
7.99201
12.791
69.6662
284.501
21.3697
9.76221
7.8326
7.50633
7.28054
7.52122
7.54602
7.52283
7.37506
7.67383
7.63878
7.6518
7.50113
7.49913
7.35491
7.46137
7.54272
7.42013
7.68802
7.74687
7.63346
7.35491
7.30563
7.41166
7.31255
7.15782
6.75239
6.74429
6.92618
7.34088
7.59172
7.75152
7.52814
7.67989
7.67996
7.59569
7.58924
7.58076
7.51602
7.33967
7.60639
7.60188
7.84135
7.62947
7.7988
7.4341
7.45127
7.35025
7.67009
7.54006
7.47925
7.8943
12.7867
69.9378
286.8
21.3112
9.70875
7.60651
7.46711
7.02551
7.42888
8.04459
7.43789
7.3605
7.37914
7.48337
7.37694
7.54602
7.28644
7.29049
7.41125
7.52782
7.46971
7.46536
7.67328
7.4632
7.27015
7.39844
7.41662
7.34998
7.20226
6.82883
6.78873
6.9145
7.22354
7.43291
7.68519
7.46263
7.3956
7.74016
7.67143
7.60726
7.47747
7.48009
7.19856
7.59053
7.6669
7.61185
7.75072
7.88162
7.42605
7.40666
7.47672
7.66723
7.55651
7.4234
7.77955
12.8179
70.1786
286.838
21.2613
9.65701
7.51538
7.28962
7.02668
7.39675
7.11581
7.30125
7.393
7.37497
7.32537
7.3308
7.43592
7.32386
7.33311
7.59652
7.62636
7.46703
7.53696
7.41608
7.21635
7.39417
7.38468
7.32824
7.40517
7.18378
6.92026
6.83842
6.97889
7.12646
7.24898
7.56705
7.3944
7.35146
7.59272
7.50463
7.5174
7.53562
7.5525
7.3177
7.47952
7.69304
7.59761
7.844
7.7854
7.54939
7.55803
7.58914
7.54647
7.65176
7.49011
7.76808
12.8019
70.3936
287.43
21.1963
9.5358
7.64932
7.3004
7.18105
7.30753
7.25664
7.11823
7.33077
7.46182
7.26803
7.21044
7.91803
7.47024
7.39415
7.5741
7.55242
7.43006
7.49554
7.20704
7.32569
7.36176
7.42297
7.2219
7.40541
7.20695
6.90963
6.9283
6.94985
7.05023
7.22198
7.62037
7.51325
7.38344
7.51787
7.36978
7.45948
7.48269
7.52408
7.31094
7.38746
7.66229
7.60181
7.62971
7.68719
7.49636
7.54566
7.40353
7.51586
7.57482
7.4214
7.76352
12.8069
70.5959
288.815
21.1732
9.55516
7.72738
7.44577
7.24402
7.30721
7.14822
7.17572
7.33306
7.37743
7.27155
7.24651
7.18973
7.35573
7.32716
7.45153
7.35958
7.25604
7.44851
7.27469
7.46528
7.41358
7.4235
7.24786
7.24021
7.21642
6.94038
7.05142
7.07414
7.07928
7.31026
7.55624
7.52524
7.40996
7.48284
7.35218
7.34096
7.38871
7.48012
7.37185
7.36122
7.54141
7.53142
7.64302
7.70646
7.5664
7.54908
7.44631
7.59586
7.44676
7.31071
7.84702
12.8148
70.7489
287.104
21.1182
9.81074
7.82585
7.42842
7.42046
7.47966
7.26757
7.1003
7.31307
7.44871
7.46194
7.30703
7.18931
7.14715
7.27279
7.31783
7.2533
7.16226
7.20343
7.44788
7.47796
7.55557
7.26322
7.11478
7.10207
7.18402
7.05865
7.12937
7.20893
7.21298
7.32003
7.51798
7.41158
7.46913
7.56295
7.39145
7.34233
7.49503
7.54553
7.44442
7.27945
7.51255
7.56989
7.35268
7.57893
7.62691
7.51814
7.61301
7.43102
7.38001
7.33351
7.68973
12.7858
70.902
284.579
21.1078
9.87313
7.9181
7.44952
7.53487
7.42246
7.14838
7.02969
7.29745
7.44862
7.55884
7.34328
7.33278
7.08563
7.19482
7.26169
7.22733
7.22109
7.29884
7.38196
7.45373
7.51163
7.23227
7.08502
7.21384
7.14013
7.18893
7.1671
7.19005
7.25933
7.32514
7.34206
7.37203
7.47962
8.46957
7.37789
7.32012
7.64829
7.60772
7.43449
7.354
7.52707
7.49039
7.27334
7.497
7.55132
7.46763
7.51272
7.43762
7.28019
7.30453
7.69619
12.8014
71.0542
283.65
21.0611
9.88015
7.84348
7.38527
7.17727
7.30782
7.07217
7.00953
7.71258
7.3536
7.33324
7.28141
6.84924
6.84994
7.23085
7.37905
7.26059
7.32832
7.33153
7.44619
7.36461
7.41406
7.24345
7.18973
7.25604
7.04135
7.32628
7.28839
7.16271
7.24398
7.37147
7.3279
7.31371
7.56476
7.44416
7.36934
7.27306
7.63576
7.60697
7.35043
7.32954
7.51369
7.46645
7.41263
7.45837
7.55867
7.51076
7.54772
7.59461
7.1875
7.16377
7.7506
12.7668
71.189
283.879
20.994
9.86242
7.85681
7.47089
7.19249
7.36363
6.98394
7.0502
6.91987
7.29948
7.27364
7.21008
6.83769
6.84595
7.26755
7.61283
7.44589
7.33219
7.23735
7.51443
7.46625
7.43713
7.28662
7.11355
7.28468
7.08628
7.35237
7.08761
7.21755
7.3298
7.43062
7.44249
7.31193
7.59064
8.19121
7.44494
7.29038
7.41349
7.4932
7.25984
7.40775
7.55724
7.5059
7.29303
7.39208
7.5815
7.55964
7.67191
7.5899
7.31966
7.1995
7.75969
12.8112
71.2925
283.935
20.9576
9.84399
7.88441
7.49039
7.32645
7.25661
6.89289
6.96948
6.84571
7.17894
7.2325
7.04367
6.92299
6.86269
7.25348
7.48889
7.46699
7.48699
7.30143
7.50542
7.50311
7.40022
7.26585
7.15493
7.36005
7.18579
7.36019
7.06087
7.33323
7.43547
7.45449
7.38493
7.42001
7.46341
7.26169
7.49009
7.35581
7.36852
7.34895
7.21229
7.35378
7.61158
7.4485
7.1888
7.3514
7.44489
7.48252
7.59344
7.52405
7.3598
7.37439
7.6973
12.8017
71.1244
283.776
21.015
9.77284
7.70244
7.39425
7.27894
7.24486
6.99987
6.88194
6.69072
6.96331
7.02224
6.9658
6.87647
6.96819
7.20982
8.07903
7.39305
7.27079
7.46945
7.39501
7.3699
7.15823
7.22676
7.3102
7.34566
7.14782
7.25938
7.28364
7.33933
7.55209
7.57807
7.49959
7.52773
7.42658
7.45532
7.4297
7.42786
7.40053
7.39987
7.23779
7.35946
7.517
7.44165
7.27855
7.3534
7.52357
7.36896
7.59377
7.40261
7.42937
7.47677
7.69596
12.7249
70.8749
288.706
20.9814
9.72327
7.58764
7.28025
7.3711
7.44603
7.13953
6.94567
6.80441
6.82795
6.9939
7.00322
7.00875
7.08935
7.10768
7.14498
7.31754
7.23594
7.37462
7.373
7.26003
6.80683
7.14272
7.33013
7.28011
7.16086
7.18051
7.31389
7.27513
7.4498
7.74441
7.64445
7.63546
7.51407
7.24437
7.32845
7.35414
7.54925
7.53029
7.40794
7.52512
7.49881
7.39001
7.34305
7.45999
7.54453
7.42804
7.5504
7.34995
7.26584
7.52447
7.76258
12.674
70.5548
289.782
20.9704
9.61847
7.5696
6.9641
7.27867
7.45854
7.25218
7.14108
6.9257
6.88789
7.11468
7.55179
7.1168
7.21375
7.17277
7.20352
7.12513
7.24162
7.45554
7.37037
7.15046
6.81772
7.13222
7.24386
7.17388
7.1946
7.27145
7.29826
7.26277
7.38818
7.57573
7.54976
7.46454
7.41114
7.34266
7.31807
7.36622
7.52266
7.59346
7.62839
7.56871
7.33623
7.33979
7.2197
7.45946
7.52931
7.39721
7.43449
7.41263
7.26271
7.48437
7.79074
12.6792
70.2637
285.519
20.9466
9.44057
7.88504
7.03704
7.27251
7.0969
7.2611
7.1928
6.9704
7.00678
7.11813
7.03467
7.17974
7.19725
7.22591
7.04214
7.0775
7.17229
7.61786
7.36122
7.10627
6.88892
7.09603
7.12292
7.0412
7.04402
7.17636
7.18408
7.2396
7.36901
7.41908
7.39577
7.23978
7.53486
7.39028
7.32628
7.48704
7.49247
7.47403
7.71243
7.57534
7.26366
7.1468
7.16343
7.47114
7.51971
7.38127
7.32003
7.46172
7.46149
7.57123
7.91241
12.7292
70.0013
283.489
20.9542
9.36517
7.27271
7.11343
6.89292
6.94789
7.2357
7.28811
7.00825
7.0258
7.04243
7.00447
7.17402
7.34781
7.32572
7.09461
7.09459
7.13361
7.29003
7.33554
7.09468
6.88059
7.00715
7.06687
7.00357
7.02744
6.96478
7.15074
7.19994
7.20158
7.43136
7.32058
7.18935
7.49163
7.4679
7.35753
7.5294
7.45146
7.35241
7.54892
7.49019
7.17665
6.99458
7.25004
7.52961
7.47965
7.28041
7.26173
7.28922
7.51151
7.59451
7.77593
12.743
69.6885
283.424
20.9154
9.29972
7.17574
7.04713
6.84821
6.99623
7.19816
7.21047
7.14943
7.06629
7.01345
7.20951
7.30648
7.54496
7.44235
7.2062
7.11288
7.02394
7.14794
7.29398
7.07734
6.81027
7.04418
7.12657
7.04212
6.89418
6.96204
6.91127
7.19437
7.11948
7.32849
7.53276
7.27941
7.41539
7.59011
7.32673
7.44944
7.5124
7.43843
7.4026
7.27477
7.10577
7.03723
7.11166
7.52412
7.3381
6.98539
7.05653
7.21153
7.51735
7.50223
7.72534
12.7061
69.3648
283.428
20.87
9.15092
7.34117
7.11622
7.15127
7.07225
7.31527
7.14437
7.22956
7.11666
7.09897
7.16706
7.37834
7.43104
7.46668
7.28854
7.12854
7.10554
7.19996
7.23674
7.093
6.92675
7.08936
7.03095
7.01023
6.9316
7.09767
6.87185
7.08691
7.17521
7.26676
7.03422
7.31148
7.3481
7.59392
7.33815
7.22776
7.48134
7.42942
7.38129
7.22578
7.10877
7.1306
7.18223
7.42567
7.21611
6.91637
7.0064
7.23669
7.31636
7.46952
7.87558
12.6476
69.0869
287.114
20.815
9.30501
7.43326
7.21121
7.28485
7.23239
7.2271
7.22873
7.18255
7.07704
7.19357
7.20177
7.23545
7.3496
7.45537
7.24675
7.11169
7.17182
7.14334
7.14855
7.23428
7.12674
7.0757
6.86767
6.94351
7.02573
7.02419
6.97093
6.95271
7.14787
7.26174
6.92973
7.30901
7.29081
7.50831
7.35956
7.19086
7.46606
7.45565
7.46847
7.20137
7.21146
7.25294
7.26726
7.33432
7.21081
7.02605
7.06053
7.20286
7.1334
7.4683
7.86124
12.5735
68.7659
284.456
20.8872
9.47122
7.50633
7.38466
7.46908
7.32206
7.18372
7.22613
7.05938
7.05896
7.19859
7.23513
7.24807
7.35695
7.50925
7.25032
7.08438
7.21761
7.05953
7.08008
7.29439
7.16526
7.00654
6.8866
6.87193
7.0852
7.00839
7.00408
7.0392
7.03915
7.20305
6.99707
7.13231
7.26277
7.27388
7.31911
7.16889
7.25996
7.41565
7.47232
7.33159
7.33326
7.38728
7.34204
7.16756
7.05332
7.18553
7.27897
7.20827
7.16919
7.4886
7.85426
12.5776
68.4639
285.47
20.9122
9.55705
7.45775
7.30277
7.48436
7.41933
7.31033
7.17901
7.13792
7.11729
7.21232
7.2943
7.20797
7.2818
7.43384
7.09171
6.9874
7.11832
6.95637
6.82144
7.11698
7.17321
6.94473
6.99677
6.95382
6.79673
7.10499
7.20514
7.14784
7.0939
7.08498
6.90305
6.93329
7.18704
7.30928
7.29152
7.23306
7.1903
7.32949
7.33059
7.9612
7.43381
7.41539
7.34557
7.19582
6.7397
7.00579
7.183
6.9145
7.28316
7.55962
7.82152
12.5405
68.1613
286.55
20.8669
9.63201
7.53417
7.28166
7.49121
7.45441
7.25415
7.11633
7.11562
7.15854
7.16692
7.22528
7.21871
7.28674
7.35345
6.99592
7.03637
7.18707
7.04781
6.98125
7.19944
7.21697
7.07599
7.12319
7.08533
6.80357
7.09618
7.62064
7.20315
7.24838
7.08653
6.88429
6.87958
7.0335
7.21766
7.17907
7.22018
7.28607
7.19736
7.1992
7.12871
7.30258
7.44395
7.37759
7.23143
6.89783
6.96865
7.18072
7.04578
7.31868
7.46718
7.73699
12.4651
67.9334
284.726
20.8771
9.53757
7.47742
7.40476
7.48729
7.38535
7.20596
7.04235
7.2406
7.03109
7.12831
7.1981
7.17721
7.219
7.245
6.90964
7.04346
7.06475
7.025
7.174
7.27479
7.31848
7.17171
7.12564
7.23918
7.01332
7.10005
6.94737
7.13731
7.19552
7.09319
6.99718
6.73891
6.94337
7.03636
7.13137
7.13557
7.23869
7.11874
7.23173
7.16957
7.25782
7.44878
7.35813
7.42162
7.22725
7.11779
7.25664
7.36173
7.18872
7.44826
7.83244
12.3938
67.6602
285.981
20.8888
9.57064
7.5126
7.40897
7.50557
7.31151
7.1246
7.11798
7.24342
7.02017
7.22828
7.29275
7.00386
7.16142
7.12575
6.88021
6.97963
6.97164
6.9256
7.12039
7.20926
7.32152
7.12292
7.12137
7.24273
7.09722
7.07696
6.94359
7.06436
7.10751
7.06748
6.86458
6.77737
6.7742
6.76159
7.12662
7.02493
7.17204
7.00975
7.17987
7.07314
7.49439
7.49034
7.28899
7.29108
7.29506
7.08437
7.09603
7.15947
7.22141
7.6027
7.84503
12.4589
67.3803
284.386
20.8525
9.62345
7.65718
7.33652
7.48357
7.18306
7.09537
7.1538
7.08552
7.12038
7.26839
7.37632
7.11536
7.08355
7.0269
6.91083
6.97891
6.92288
6.82346
7.12087
7.16225
7.28021
7.01578
7.23722
7.19796
7.1101
7.0271
6.75895
6.99771
7.00521
7.02079
6.86577
6.82475
6.90109
6.92852
7.12543
7.13139
7.52948
6.98509
7.02921
7.19385
7.61193
7.48006
7.2661
7.38723
7.36307
7.09478
7.04835
7.21476
7.52328
7.76947
7.94492
12.4483
67.4478
287.64
20.8348
9.48138
7.78575
7.32035
7.33565
7.14517
7.13882
7.21593
7.08829
7.12943
7.15843
7.35475
7.18299
7.01203
7.04487
6.97701
7.05635
6.75484
6.82942
6.91237
7.03109
7.18106
7.10322
7.17364
7.29087
7.24529
7.12771
6.84208
6.89333
7.01516
7.06154
7.01764
6.9158
7.10454
7.19076
7.36283
7.14711
7.51076
7.11995
7.08086
7.27091
7.60863
7.32209
7.15512
7.14742
7.38957
7.24764
7.15543
7.25281
7.32399
8.12015
8.59774
12.4804
67.5042
288.763
20.7952
9.56502
7.77487
7.3059
7.20863
7.23105
7.1692
7.142
7.12542
7.01985
7.09892
7.34943
7.12596
7.10561
7.10417
6.90425
7.02249
6.70811
6.69299
6.92717
6.83109
7.21252
7.2503
7.16623
7.2532
7.33907
7.29706
6.96533
6.92528
7.12919
7.55816
7.08048
6.93015
7.52788
7.01052
6.90047
6.85338
7.10635
7.08111
7.22238
7.14111
7.24998
7.38335
7.52979
7.43858
7.4348
7.22106
7.17144
7.11802
7.70351
7.73795
8.11227
12.5705
67.5049
284.46
20.8209
9.40646
7.71231
7.15967
7.21786
7.30587
7.22238
7.1488
7.07252
7.10998
7.11464
7.04963
7.12291
7.13651
7.13409
6.96014
6.91183
6.7588
6.74345
6.8194
6.90897
6.95728
7.28438
7.22588
7.21756
7.23759
7.32941
6.99936
7.03049
7.14473
6.91799
7.17829
6.92506
6.84577
6.84298
6.63767
6.65408
6.68191
6.90304
7.1627
7.03994
7.04933
6.83117
6.76118
6.77701
6.93996
7.04284
7.03009
6.85996
6.92696
7.39956
7.72612
12.4573
67.5089
285.49
20.8279
9.30707
7.54646
7.14121
7.21718
7.3872
7.23712
6.96924
6.98069
7.21658
7.1241
7.00768
7.19257
7.13665
7.13604
7.20675
7.00298
6.59088
6.74046
6.76567
6.99913
7.08943
7.42459
7.30486
7.30634
7.2909
7.59463
6.92964
7.05254
7.09865
6.87049
6.87836
6.84879
6.57214
6.74323
6.5554
6.56042
6.47013
6.76866
7.14829
6.84312
6.96588
6.67683
6.75664
6.63858
6.5941
6.7871
6.98076
6.69498
6.72372
7.01736
7.46582
12.2927
67.4917
284.145
20.7616
9.43876
7.37822
7.0998
7.69084
7.81735
7.12716
6.92098
6.99249
6.96908
6.89245
7.01182
7.09961
7.17987
7.15933
7.28058
7.07621
6.63226
6.79491
6.81286
7.08821
7.33937
7.4682
7.46979
7.48744
7.49952
7.09706
6.88533
7.01699
7.10382
6.99236
6.80722
6.70252
6.50993
6.46845
6.37454
6.3508
6.37945
6.59832
7.06672
6.82288
6.91359
6.63414
6.44808
6.3805
6.43759
6.68912
7.0031
6.62065
6.54232
6.75488
7.18378
12.121
67.4964
282.883
20.8432
9.43304
7.30677
7.11782
7.11131
7.10393
7.09348
7.03777
7.02832
6.86538
6.82197
6.86532
7.01318
7.25159
7.2884
7.10542
6.99526
6.96231
6.86907
6.89423
7.12285
7.28505
7.45952
7.48439
7.53641
7.51067
8.01085
6.94642
6.9868
7.08639
6.86433
6.90814
6.50693
6.35473
6.30572
6.27285
6.29241
6.25349
6.55912
7.02377
6.77876
6.98595
6.55979
6.35124
6.33398
6.35693
6.55899
6.98214
6.54797
6.46565
6.54983
6.99917
12.0771
67.4603
282.405
20.8422
9.14509
7.16941
7.20006
6.99159
6.99501
7.11228
7.10248
7.01048
6.88269
6.89192
6.93285
6.94895
7.18785
7.34361
7.0195
7.12828
7.22436
7.01888
7.02543
7.09321
7.30526
7.33482
7.45608
7.5534
7.45823
7.02856
6.95594
6.8171
6.83235
6.74068
6.87661
6.49223
6.29284
6.264
6.2922
6.2757
6.30362
6.53535
7.0084
6.79543
6.99533
6.53301
6.29755
6.29499
6.31993
6.52275
6.97848
6.57076
6.4001
6.49505
6.94941
12.069
67.3816
282.747
20.8332
9.12303
7.74173
7.09958
7.02814
7.08669
7.13671
7.12
6.89822
6.84342
6.96829
6.98582
6.92137
7.13314
7.18389
7.09001
7.1807
7.17527
7.0923
7.05707
7.12258
7.39378
7.3807
7.52623
7.45361
7.76582
7.11521
6.84541
6.63198
6.58788
6.58411
6.95858
6.53106
6.32
6.29029
6.2873
6.28771
6.31816
6.54479
7.00226
6.79313
6.99721
6.54257
6.32273
6.29509
6.32432
6.54679
6.97565
6.56768
6.42603
6.51708
6.96199
12.0564
67.4808
282.405
20.7465
9.21475
7.35294
7.05496
7.01947
7.01167
7.10558
7.11129
6.80742
6.79278
6.97282
7.10362
7.08115
7.1213
7.19847
7.15582
7.11391
7.00997
7.07264
6.92511
7.06624
7.6304
7.35094
7.58173
7.68906
7.0099
6.752
6.55833
6.40637
6.38358
6.55571
6.96065
6.53446
6.3173
6.28726
6.28505
6.28626
6.31693
6.54261
6.99944
6.79194
6.99731
6.54098
6.31916
6.29094
6.32028
6.54386
6.97412
6.56611
6.42256
6.51168
6.95524
12.0551
67.4894
282.649
20.6417
9.29884
7.36198
7.02897
6.90184
7.0947
7.01445
7.04964
6.86175
6.69559
6.97844
7.29182
7.28024
7.12627
7.21425
7.89825
7.00088
7.00757
7.03039
6.87355
6.92698
6.97638
7.11165
7.12962
6.77938
6.66674
6.50643
6.33291
6.29138
6.30846
6.53232
6.96334
6.53628
6.31638
6.28611
6.28422
6.28576
6.3165
6.5417
6.99841
6.79147
6.99751
6.54043
6.3177
6.28923
6.31862
6.54263
6.97362
6.56553
6.42112
6.50936
6.95243
12.0517
67.4897
282.682
20.6681
9.44496
7.64915
7.15527
6.79878
7.13625
7.03886
6.90143
6.87361
6.71314
6.95351
7.24046
7.33383
7.18851
7.29294
6.98394
7.00759
7.08181
6.82834
6.80318
6.86843
7.13434
6.93487
6.78827
6.6115
6.43421
6.34511
6.2745
6.26113
6.32282
6.54144
6.96469
6.53697
6.31582
6.28542
6.28365
6.28533
6.31609
6.541
6.99763
6.79095
6.99727
6.53996
6.31683
6.28825
6.31767
6.5418
6.97306
6.56508
6.42026
6.50817
6.9506
12.0423
67.3979
282.784
20.7792
9.59137
7.52545
7.0696
6.82935
7.01182
7.12623
6.96738
6.96371
6.78741
6.97133
7.13032
7.05463
7.15013
7.20019
7.05992
6.84
7.032
6.77867
6.71078
6.69076
6.67007
6.69578
6.59208
6.44583
6.36334
6.28061
6.29153
6.28737
6.31834
6.53947
6.96514
6.53721
6.31546
6.28498
6.28327
6.285
6.31577
6.5405
6.99715
6.79058
6.99704
6.5397
6.31632
6.28769
6.31713
6.54126
6.97266
6.56479
6.41975
6.50759
6.95178
12.075
67.4845
282.773
20.896
9.6421
7.58289
7.06942
6.87955
7.05279
7.0708
7.10746
7.00802
6.94032
7.08935
6.87381
6.88063
7.08967
7.01233
6.85282
6.7594
6.85517
7.0369
6.54382
6.50572
6.40114
6.47924
6.34808
6.33321
6.27376
6.29406
6.28666
6.28577
6.31662
6.53874
6.96562
6.53753
6.31549
6.28497
6.28328
6.28504
6.3158
6.5404
6.99723
6.79062
6.99727
6.53986
6.3163
6.28763
6.31707
6.54117
6.97277
6.56487
6.41969
6.50739
6.95167
12.0436
67.4767
282.681
20.9053
9.63869
7.43847
7.01065
6.9341
7.07734
7.04295
7.12286
7.07797
7.06786
7.00223
6.87404
6.98246
6.99502
6.89402
6.751
6.54269
6.508
6.39394
6.40152
6.31366
6.31394
6.29961
6.27405
6.2658
6.29218
6.28766
6.28434
6.28493
6.31571
6.5382
6.9656
6.53754
6.31534
6.28478
6.28311
6.28488
6.31565
6.54012
6.997
6.79044
6.99712
6.5398
6.31613
6.28745
6.31689
6.54093