/*--------------------------------*- C++ -*----------------------------------*\
  =========                 |
  \\      /  F ield         | OpenFOAM: The Open Source CFD Toolbox
   \\    /   O peration     | Website:  https://openfoam.org
    \\  /    A nd           | Version:  7
     \\/     M anipulation  |
\*---------------------------------------------------------------------------*/
FoamFile
{
    version     2.0;
    format      ascii;
    class       volScalarField;
    location    "5";
    object      p;
}
// * * * * * * * * * * * * * * * * * * * * * * * * * * * * * * * * * * * * * //

dimensions      [0 2 -2 0 0 0 0];

internalField   nonuniform List<scalar> 
17475
(
0.676532
0.414861
0.355903
0.325981
0.306139
0.292027
0.281591
0.273699
0.267666
0.263047
0.259539
0.256923
0.255035
0.253746
0.252951
0.252561
0.2525
0.252698
0.253092
0.25362
0.254229
0.254867
0.255483
0.256035
0.256486
0.256806
0.256969
0.25696
0.256772
0.256408
0.255881
0.25521
0.254426
0.253563
0.252664
0.251779
0.250959
0.250261
0.249748
0.249484
0.249541
0.249998
0.250943
0.252482
0.254741
0.257882
0.262119
0.267742
0.275164
0.284995
0.29818
0.31627
0.341708
0.378711
0.404401
0.363405
0.366422
0.340549
0.318211
0.301488
0.288957
0.27943
0.272103
0.266444
0.262084
0.258762
0.256286
0.254507
0.253306
0.252586
0.252263
0.252264
0.252519
0.252967
0.253548
0.254207
0.254889
0.255548
0.256139
0.256622
0.256964
0.257141
0.257138
0.256947
0.256572
0.256024
0.255325
0.254506
0.253602
0.252659
0.251725
0.250853
0.250102
0.249531
0.249208
0.2492
0.249583
0.250443
0.251878
0.254006
0.256974
0.260973
0.266259
0.273188
0.282267
0.294247
0.310294
0.33229
0.362693
0.392217
0.297561
0.305972
0.30269
0.294669
0.286135
0.278395
0.271815
0.266399
0.262035
0.258588
0.255933
0.25396
0.252578
0.251703
0.251258
0.251179
0.251402
0.251866
0.252511
0.253281
0.254118
0.254967
0.255777
0.256499
0.257091
0.257515
0.257743
0.25776
0.257558
0.257139
0.256517
0.255716
0.254771
0.253721
0.252615
0.251504
0.250446
0.249497
0.248718
0.248174
0.247925
0.24804
0.248586
0.249641
0.251288
0.253626
0.256769
0.260855
0.266042
0.272506
0.280387
0.289641
0.299581
0.306332
0.300896
0.256509
0.265079
0.269815
0.269935
0.267756
0.264598
0.261258
0.258147
0.255453
0.253244
0.251526
0.250285
0.249494
0.249112
0.249095
0.249401
0.249978
0.250777
0.251743
0.25282
0.25395
0.255073
0.256134
0.257076
0.257848
0.258409
0.258725
0.258776
0.258554
0.258062
0.257316
0.256344
0.255188
0.253893
0.252516
0.251113
0.249746
0.248474
0.247358
0.246458
0.245827
0.245516
0.245575
0.246048
0.246977
0.248397
0.250332
0.252786
0.255714
0.258982
0.262264
0.264886
0.265373
0.259449
0.243984
0.233743
0.240004
0.246325
0.24984
0.251116
0.250974
0.250099
0.248954
0.247811
0.246829
0.246092
0.245655
0.245541
0.245742
0.246251
0.24704
0.248075
0.249315
0.250712
0.252209
0.253745
0.255256
0.256674
0.257931
0.258966
0.259727
0.260173
0.260276
0.260026
0.259427
0.2585
0.257279
0.255818
0.254172
0.25241
0.250598
0.248806
0.247095
0.24553
0.244165
0.243045
0.242205
0.241674
0.241466
0.241581
0.242006
0.242693
0.243551
0.244431
0.245056
0.244985
0.243551
0.239727
0.230793
0.2174
0.220958
0.22512
0.230615
0.234823
0.237465
0.238895
0.23955
0.239787
0.239842
0.239883
0.240023
0.240352
0.240914
0.241731
0.242812
0.244148
0.245723
0.247502
0.24944
0.251479
0.253556
0.255588
0.257492
0.259185
0.26059
0.261637
0.262269
0.26245
0.262161
0.261411
0.260227
0.258659
0.256773
0.254646
0.252365
0.250011
0.247663
0.245395
0.243277
0.241357
0.239671
0.238243
0.237081
0.236177
0.235502
0.235011
0.234619
0.234198
0.233575
0.232468
0.230503
0.22726
0.222294
0.214448
0.205447
0.212982
0.215728
0.219885
0.22365
0.226501
0.228541
0.229985
0.231053
0.231917
0.232712
0.233558
0.234542
0.235722
0.237131
0.238797
0.240721
0.242899
0.245312
0.247909
0.250636
0.253409
0.25613
0.258693
0.260989
0.262913
0.264368
0.265268
0.265563
0.265223
0.264259
0.262716
0.260661
0.258191
0.255412
0.252439
0.249378
0.246323
0.243371
0.240596
0.238043
0.23574
0.233699
0.231917
0.230369
0.229004
0.227766
0.226563
0.225262
0.223712
0.221695
0.218957
0.21529
0.210648
0.204913
0.199749
0.206837
0.208722
0.211794
0.214863
0.217449
0.219566
0.221306
0.222792
0.224135
0.225436
0.226795
0.228293
0.22999
0.231935
0.234161
0.236687
0.239526
0.242658
0.24605
0.249623
0.253287
0.256917
0.260375
0.263511
0.266171
0.268211
0.269502
0.269965
0.269558
0.268291
0.266237
0.263497
0.260215
0.256548
0.252654
0.248676
0.244738
0.240962
0.237427
0.234176
0.231229
0.228585
0.226231
0.224128
0.222216
0.220429
0.218681
0.21686
0.214853
0.21251
0.209678
0.206286
0.202457
0.198471
0.195554
0.201146
0.20248
0.204805
0.207259
0.209471
0.211436
0.2132
0.214832
0.216408
0.217999
0.219687
0.221552
0.223655
0.226052
0.228794
0.23191
0.235432
0.239378
0.243688
0.248296
0.253095
0.257927
0.262608
0.266921
0.270638
0.273535
0.275409
0.276129
0.275626
0.273919
0.271118
0.267393
0.262971
0.258083
0.252957
0.247789
0.242759
0.238011
0.233618
0.229622
0.22603
0.222827
0.219979
0.217435
0.215125
0.212978
0.210916
0.208849
0.206693
0.20435
0.201737
0.198832
0.195799
0.193016
0.191221
0.195267
0.196228
0.198033
0.200018
0.201883
0.20363
0.205292
0.206915
0.208552
0.210265
0.212128
0.21421
0.216581
0.219314
0.222486
0.226146
0.230379
0.235179
0.24053
0.246375
0.252603
0.259035
0.265398
0.271388
0.276656
0.28084
0.283609
0.28473
0.284089
0.281713
0.27779
0.27261
0.266544
0.259952
0.253167
0.246466
0.240108
0.234229
0.228901
0.224147
0.219951
0.216264
0.213033
0.210184
0.207627
0.205288
0.203085
0.200952
0.198818
0.196622
0.194311
0.191873
0.189427
0.187301
0.18603
0.189041
0.189713
0.191113
0.192724
0.194291
0.195811
0.19731
0.198826
0.200405
0.202102
0.203986
0.206131
0.208619
0.211546
0.215015
0.219119
0.223969
0.229623
0.236102
0.243385
0.251389
0.259919
0.268626
0.277051
0.284654
0.290843
0.295029
0.296801
0.295943
0.29251
0.286829
0.279431
0.270933
0.261923
0.252889
0.244253
0.236305
0.229169
0.222881
0.217421
0.212722
0.208684
0.20521
0.2022
0.199551
0.197169
0.194985
0.192926
0.190932
0.188952
0.186948
0.184902
0.182886
0.181186
0.180229
0.182533
0.182976
0.18402
0.185294
0.186577
0.187855
0.189144
0.190473
0.191888
0.193438
0.195192
0.19723
0.199646
0.202563
0.206107
0.210459
0.215751
0.222125
0.229705
0.238557
0.248671
0.259894
0.271853
0.283877
0.295107
0.304536
0.311101
0.313979
0.312764
0.307548
0.298984
0.28807
0.275896
0.263408
0.251375
0.240358
0.230611
0.222186
0.215033
0.209029
0.204014
0.199823
0.196298
0.19333
0.190787
0.188549
0.186531
0.184659
0.182883
0.181162
0.179458
0.177752
0.176094
0.174723
0.174019
0.175686
0.175976
0.176744
0.177729
0.178745
0.179767
0.180803
0.181878
0.183029
0.184303
0.185767
0.187501
0.189619
0.192263
0.195593
0.199834
0.205211
0.211964
0.220384
0.230723
0.24314
0.257653
0.273992
0.291352
0.308385
0.323322
0.334117
0.339026
0.337164
0.32874
0.315166
0.298459
0.280589
0.263159
0.247285
0.233518
0.221946
0.212431
0.204707
0.198485
0.193484
0.18947
0.186219
0.183554
0.18132
0.179392
0.177679
0.176105
0.174626
0.173204
0.171805
0.170411
0.16907
0.167991
0.167509
0.168553
0.168734
0.169323
0.170085
0.170868
0.171637
0.172397
0.173158
0.173952
0.174824
0.175832
0.177058
0.178616
0.180649
0.183378
0.187022
0.19189
0.198374
0.206963
0.218204
0.232663
0.250739
0.27261
0.297737
0.324263
0.349017
0.367844
0.376722
0.373577
0.358982
0.33615
0.309505
0.282776
0.258608
0.238248
0.221801
0.208865
0.198859
0.191188
0.185377
0.180965
0.177577
0.174947
0.172861
0.171153
0.169715
0.168452
0.167283
0.166179
0.165101
0.164022
0.162932
0.161871
0.161016
0.160635
0.161321
0.161439
0.161886
0.162475
0.163056
0.163578
0.164035
0.164433
0.164793
0.165152
0.16556
0.166083
0.16681
0.16788
0.169495
0.171899
0.175437
0.18059
0.188063
0.198749
0.213819
0.234583
0.262306
0.297774
0.339677
0.382823
0.418103
0.435554
0.429507
0.401789
0.360749
0.316642
0.276783
0.244592
0.220177
0.202272
0.189381
0.18028
0.1739
0.169422
0.166287
0.164051
0.16245
0.161272
0.160353
0.159598
0.158932
0.158283
0.157626
0.156932
0.156184
0.155379
0.154569
0.15391
0.153618
0.153817
0.153955
0.154379
0.15489
0.155323
0.155613
0.15575
0.155737
0.155595
0.155349
0.155032
0.154677
0.154324
0.154061
0.154033
0.15446
0.155629
0.157992
0.16228
0.169627
0.181762
0.201123
0.231349
0.276698
0.340765
0.419103
0.49124
0.528581
0.515478
0.457583
0.378386
0.30454
0.248845
0.211061
0.186496
0.171029
0.161501
0.155736
0.152324
0.150404
0.149418
0.148978
0.148861
0.148893
0.149006
0.14912
0.149188
0.149156
0.149013
0.14875
0.148341
0.147793
0.147161
0.1466
0.146337
0.14583
0.146079
0.146686
0.147283
0.147649
0.147719
0.14751
0.147045
0.146349
0.14544
0.144324
0.14295
0.141244
0.139292
0.137181
0.134939
0.132645
0.130527
0.129042
0.128968
0.131708
0.140022
0.159026
0.19826
0.276005
0.411155
0.573691
0.661338
0.630257
0.495937
0.339323
0.228048
0.170694
0.142825
0.130068
0.12512
0.124087
0.124902
0.126586
0.128597
0.130631
0.132592
0.134387
0.135958
0.13732
0.138456
0.139371
0.140055
0.14051
0.140723
0.140664
0.140319
0.139739
0.139114
0.138776
0.136838
0.137629
0.139063
0.140092
0.140451
0.140237
0.139584
0.138572
0.137231
0.135546
0.133455
0.13087
0.12777
0.124117
0.119718
0.114368
0.107869
0.099957
0.0903506
0.0786304
0.0642717
0.0469472
0.0265358
0.00395042
-0.0147092
0.142145
0.363613
0.290347
0.0881157
-0.0187177
0.0061883
0.0297787
0.0495492
0.0657497
0.0789853
0.0895887
0.0981742
0.105186
0.110944
0.115709
0.11966
0.122927
0.125618
0.127831
0.129648
0.131109
0.132235
0.13301
0.133363
0.133204
0.132481
0.131409
0.130807
0.126723
0.128912
0.132483
0.134168
0.134288
0.133534
0.13227
0.130631
0.128604
0.126094
0.122996
0.119253
0.114887
0.109564
0.102897
0.0945017
0.0838543
0.0701991
0.0522616
0.0280172
-0.00599635
-0.0563657
-0.136581
-0.273338
-0.434348
-0.639577
-0.400268
-0.211786
-0.102111
-0.0369962
0.0050564
0.0340242
0.0548977
0.070504
0.0824864
0.0918583
0.0993269
0.105357
0.110234
0.114163
0.117395
0.120099
0.122375
0.124269
0.125789
0.126799
0.127071
0.126124
0.123515
0.120675
0.143959
0.138172
0.132087
0.128278
0.125681
0.12344
0.121152
0.118588
0.115666
0.112324
0.108403
0.103724
0.0981031
0.0911661
0.082513
0.0716544
0.0578369
0.0398973
0.0161303
-0.0162904
-0.0621486
-0.130099
-0.236767
-0.410005
-0.652506
-0.543051
-0.328389
-0.188923
-0.102255
-0.0454629
-0.0064736
0.021378
0.041985
0.0576358
0.0697453
0.0792651
0.0868707
0.0930245
0.0981277
0.102397
0.105994
0.109071
0.111763
0.114183
0.116548
0.11904
0.122144
0.126718
0.131967
0.132367
0.131135
0.12749
0.124072
0.12129
0.118808
0.116316
0.113596
0.110504
0.106937
0.102817
0.0980058
0.092247
0.0851925
0.076501
0.0657226
0.0521806
0.0348932
0.0124941
-0.0170481
-0.0567317
-0.110666
-0.183378
-0.276644
-0.355378
-0.380932
-0.394432
-0.337453
-0.241087
-0.155549
-0.090987
-0.0435632
-0.00876744
0.0171713
0.0368781
0.0521171
0.0640772
0.0735843
0.0812689
0.0875995
0.0928676
0.0972924
0.101052
0.104294
0.107171
0.109832
0.112478
0.115403
0.119017
0.123427
0.126705
0.120812
0.120879
0.119548
0.117558
0.115424
0.113202
0.110811
0.108141
0.105084
0.101559
0.0974767
0.0926789
0.0870106
0.0802778
0.0721996
0.0623848
0.0503534
0.0355127
0.0170961
-0.00582833
-0.0340567
-0.0677773
-0.104808
-0.136707
-0.143331
-0.117228
-0.0874933
-0.0601646
-0.0715217
-0.0952748
-0.127153
-0.148226
-0.128548
-0.0934636
-0.0575247
-0.0262673
-0.000595582
0.0200581
0.0365831
0.0499095
0.0607273
0.0695535
0.076836
0.0829396
0.0880932
0.0924723
0.0962228
0.0994841
0.102374
0.105015
0.107539
0.110086
0.112712
0.115058
0.115886
0.112033
0.112219
0.111792
0.110693
0.109167
0.107331
0.105199
0.102735
0.0998791
0.0965729
0.0927549
0.0883019
0.0830684
0.0769233
0.069744
0.0612906
0.0513015
0.0394939
0.0255946
0.00941043
-0.00888995
-0.0283517
-0.0465623
-0.0588989
-0.0601612
-0.0541536
-0.0447312
-0.0307433
-0.034963
-0.046575
-0.0523757
-0.057444
-0.0533349
-0.0401846
-0.0226957
-0.00459497
0.0121444
0.0268655
0.0395011
0.0502324
0.0593149
0.0669863
0.0735103
0.0791001
0.0838843
0.0880063
0.0915721
0.0946844
0.097422
0.0998491
0.10203
0.103985
0.105618
0.10661
0.106621
0.105123
0.105302
0.105221
0.104592
0.103488
0.102004
0.100177
0.0980029
0.0954527
0.0924918
0.0890795
0.0851441
0.0805913
0.075335
0.0692671
0.0623517
0.0545081
0.0456602
0.0357952
0.0250742
0.0139999
0.00354886
-0.00455178
-0.00811653
-0.00596263
0.000442626
0.0116669
0.0261107
0.0218671
0.0096523
0.00345108
-0.00163602
-0.00338145
-0.000199727
0.00707655
0.0163833
0.0262757
0.0358812
0.0447954
0.0528424
0.0599792
0.0662586
0.0717502
0.0765561
0.0807591
0.0844322
0.0876373
0.0904357
0.0928771
0.0949886
0.0967859
0.0982393
0.0992417
0.0996144
0.0994279
0.0999701
0.100102
0.100044
0.0995732
0.0987025
0.0974825
0.0959373
0.0940669
0.0918654
0.0893183
0.0863943
0.0830597
0.0792672
0.0749524
0.0701247
0.0648019
0.0589921
0.0527629
0.0462414
0.0397663
0.0339088
0.0295715
0.0278921
0.030002
0.0366247
0.0470248
0.0611216
0.0741139
0.0702819
0.0572517
0.0468073
0.0384654
0.0324422
0.030204
0.0313757
0.0350125
0.0400673
0.0457165
0.0514853
0.0570737
0.062307
0.067111
0.0714566
0.0753598
0.0788494
0.0819322
0.084656
0.087046
0.089117
0.0908752
0.0923128
0.0934018
0.0940731
0.0942555
0.0941223
0.0959767
0.0960822
0.0959906
0.0955737
0.0948413
0.0938204
0.0925246
0.0909595
0.0891143
0.0869935
0.0845754
0.0818561
0.0788304
0.075495
0.0718627
0.0680109
0.0640003
0.059977
0.0561511
0.0528966
0.050781
0.0504427
0.0525899
0.0579914
0.0669565
0.0791995
0.0932196
0.103189
0.100286
0.0886428
0.0763944
0.0662098
0.0583246
0.0531727
0.0509639
0.0509816
0.0526712
0.0554006
0.0586729
0.0621922
0.0657251
0.0691361
0.072345
0.0753075
0.0780183
0.0804614
0.0826474
0.084577
0.0862488
0.0876522
0.0887788
0.0896049
0.0900954
0.0902301
0.0901074
0.0927175
0.0928144
0.0927119
0.0923368
0.091712
0.09086
0.0897869
0.0885015
0.087003
0.0853026
0.0833841
0.0812677
0.0789754
0.0765298
0.0739659
0.0713961
0.068914
0.0666908
0.0649651
0.0641029
0.0645075
0.0666389
0.0709955
0.0780142
0.0876491
0.0995334
0.111354
0.118357
0.116174
0.106916
0.0954588
0.0851066
0.0767081
0.0704204
0.0662848
0.0641923
0.0636192
0.0642149
0.0655954
0.0674397
0.0695283
0.0717121
0.0738872
0.0759761
0.0779484
0.0797702
0.0814269
0.0829033
0.0841837
0.0852571
0.0861144
0.0867367
0.0871031
0.0872069
0.0871083
0.089904
0.0899939
0.0899017
0.0895819
0.0890688
0.0883804
0.0875199
0.0864989
0.0853276
0.0840172
0.0825674
0.0810115
0.0793804
0.0777234
0.0760988
0.0746057
0.0733749
0.072568
0.0724238
0.0732146
0.0752398
0.0788281
0.0842854
0.0916503
0.100785
0.110969
0.119953
0.124561
0.123009
0.11624
0.106836
0.0975159
0.089437
0.082931
0.0780046
0.0746226
0.0726807
0.0717959
0.0717483
0.0722948
0.0732235
0.0743806
0.0756638
0.0769839
0.0782925
0.0795449
0.0807126
0.0817719
0.0826988
0.0834786
0.0840991
0.0845492
0.0848095
0.0848596
0.0847131
0.0872707
0.0873699
0.0873307
0.0871094
0.0867325
0.0862157
0.085568
0.0848071
0.0839458
0.0830007
0.081981
0.0809312
0.0798904
0.0789197
0.0780897
0.0774778
0.0772236
0.0774902
0.0784512
0.0803032
0.0832435
0.0874971
0.0931205
0.0999977
0.107893
0.116012
0.12255
0.125604
0.124516
0.119722
0.112489
0.104735
0.0975835
0.0914352
0.0864295
0.0825553
0.0797592
0.0779468
0.0769138
0.0764975
0.0765284
0.0768684
0.0774167
0.0780902
0.0788316
0.0795906
0.080331
0.081019
0.0816317
0.0821496
0.0825563
0.08284
0.0829813
0.0829599
0.0827933
0.0848618
0.0849721
0.0849994
0.0848896
0.084652
0.0843095
0.0838732
0.0833603
0.0827891
0.0821802
0.0815553
0.0809618
0.0804361
0.080033
0.0798371
0.0799243
0.0803981
0.0813998
0.0830445
0.0854523
0.0887595
0.0930489
0.0982346
0.104169
0.110564
0.116771
0.121528
0.123678
0.122909
0.119454
0.114042
0.107924
0.101962
0.0965505
0.0918785
0.0880149
0.0849341
0.0825867
0.080956
0.0798822
0.079279
0.0790103
0.0789872
0.0791434
0.0794188
0.0797622
0.0801365
0.0805072
0.0808452
0.0811301
0.0813448
0.0814724
0.0814943
0.0813988
0.0812201
0.0828055
0.0829151
0.082985
0.08296
0.0828437
0.0826556
0.0824091
0.082123
0.081813
0.0815046
0.0812278
0.0810192
0.0809211
0.0809885
0.081286
0.0818696
0.0828256
0.0842521
0.0862275
0.0888162
0.0920833
0.0960008
0.100459
0.105315
0.1103
0.114949
0.118449
0.120052
0.119497
0.116938
0.112909
0.108217
0.10344
0.0989079
0.0948134
0.091241
0.0882299
0.0857624
0.0838214
0.0823835
0.0813558
0.0806736
0.0802484
0.0800151
0.0799276
0.0799416
0.0800175
0.0801228
0.0802265
0.0803081
0.0803501
0.0803387
0.0802568
0.0800978
0.0799034
0.0809987
0.0811135
0.0812262
0.0812807
0.0812707
0.0812188
0.0811379
0.0810504
0.0809695
0.0809218
0.0809356
0.0810435
0.0812791
0.0816836
0.0823087
0.0832047
0.0844338
0.0860503
0.0880981
0.0906051
0.0935729
0.0969334
0.100591
0.104424
0.108221
0.111676
0.114273
0.115497
0.115072
0.113139
0.110133
0.10658
0.102845
0.0991787
0.0957411
0.0926244
0.0898863
0.0875386
0.0855704
0.0839695
0.08273
0.0817925
0.0811026
0.0806064
0.0802566
0.0800202
0.0798625
0.0797535
0.0796688
0.079585
0.0794874
0.0793601
0.0791939
0.0789859
0.0787944
0.0794575
0.079567
0.0796991
0.0798075
0.0798844
0.0799464
0.0800092
0.0800877
0.0801951
0.0803561
0.0805889
0.0809247
0.0813886
0.0820176
0.0828459
0.0839042
0.0852385
0.086868
0.0888037
0.091062
0.0936113
0.0963802
0.0992892
0.102243
0.105088
0.107636
0.10956
0.110478
0.110145
0.108681
0.106436
0.103759
0.100885
0.0979929
0.095202
0.0925873
0.0902129
0.0881076
0.0862755
0.0846954
0.0833927
0.0823424
0.0815073
0.080848
0.0803267
0.0799177
0.0795933
0.0793276
0.0790993
0.0788896
0.078684
0.0784715
0.0782479
0.0780043
0.0778053
0.0780909
0.078196
0.0783276
0.0784669
0.0786093
0.0787638
0.078939
0.0791447
0.0793942
0.079705
0.0800927
0.0805819
0.0811898
0.0819416
0.0828593
0.0839615
0.0852662
0.0867872
0.0885224
0.090458
0.0925626
0.0947841
0.0970463
0.0992812
0.101387
0.103245
0.10465
0.10532
0.105062
0.103961
0.10229
0.100289
0.0981127
0.095873
0.0936601
0.0915338
0.0895513
0.0877425
0.0861207
0.0846784
0.0834165
0.0823464
0.0814528
0.080716
0.0801006
0.0795864
0.0791537
0.0787851
0.0784595
0.078163
0.0778839
0.0776143
0.0773534
0.0771021
0.0769064
0.076703
0.0768077
0.0769677
0.077149
0.0773547
0.0775856
0.0778466
0.078147
0.0784949
0.0789042
0.0793877
0.0799602
0.0806335
0.0814229
0.0823424
0.0833972
0.084598
0.0859499
0.0874455
0.0890573
0.0907539
0.0924965
0.0942297
0.0958998
0.0974441
0.0987884
0.0997936
0.100269
0.100066
0.0992579
0.0980364
0.0965619
0.0949338
0.0932294
0.0915094
0.0898219
0.088204
0.0866943
0.0853063
0.0840386
0.0828964
0.0818783
0.080992
0.0802301
0.079579
0.0790155
0.0785244
0.0780959
0.0777139
0.077368
0.0770475
0.0767472
0.0764718
0.0762276
0.0760431
0.0753108
0.075425
0.0756156
0.0758403
0.0760949
0.0763763
0.0766908
0.077048
0.0774512
0.07791
0.0784353
0.0790315
0.0797112
0.080477
0.0813343
0.0822915
0.0833526
0.0845156
0.0857664
0.0870843
0.0884357
0.0897889
0.0911086
0.0923477
0.0934752
0.0944381
0.0951472
0.0954786
0.0953327
0.0947627
0.0938883
0.0928218
0.0916265
0.0903532
0.0890404
0.087718
0.0864217
0.0851859
0.0840214
0.0829331
0.0819296
0.0810092
0.080175
0.0794343
0.0787879
0.0782148
0.0777049
0.0772538
0.0768491
0.0764823
0.0761463
0.0758366
0.0755559
0.0753284
0.0751647
0.0739848
0.0740976
0.0742924
0.0745308
0.0748004
0.0751007
0.0754385
0.075816
0.0762333
0.0767008
0.0772223
0.077801
0.0784434
0.079149
0.079921
0.0807611
0.0816736
0.0826533
0.0836814
0.0847418
0.0858136
0.0868651
0.087867
0.0887966
0.0896208
0.0903104
0.0908129
0.0910505
0.0909612
0.0905787
0.0899783
0.0892288
0.0883672
0.0874274
0.0864358
0.0854133
0.0843884
0.0833883
0.0824219
0.0815012
0.0806348
0.079825
0.0790682
0.0783766
0.0777616
0.0772076
0.0767074
0.0762598
0.075857
0.0754911
0.0751571
0.0748509
0.0745797
0.0743576
0.0742337
0.0726086
0.0727155
0.072909
0.07315
0.0734221
0.0737238
0.0740586
0.0744288
0.0748355
0.0752831
0.0757715
0.0763059
0.076889
0.0775215
0.0781986
0.0789234
0.0796986
0.0805148
0.0813563
0.0822095
0.0830573
0.0838791
0.0846526
0.0853549
0.0859717
0.0864785
0.0868451
0.0870286
0.0869905
0.0867526
0.0863596
0.0858498
0.0852399
0.0845531
0.0838101
0.0830265
0.0822182
0.0814101
0.0806156
0.0798432
0.079103
0.0784003
0.0777347
0.077107
0.0765364
0.0760203
0.0755483
0.0751225
0.0747366
0.0743861
0.074067
0.0737746
0.0735181
0.0733104
0.0731881
0.0711976
0.0712919
0.0714655
0.0716907
0.0719462
0.0722291
0.0725425
0.0728878
0.0732645
0.0736754
0.0741188
0.0746001
0.0751201
0.075676
0.0762673
0.0768927
0.0775516
0.0782321
0.0789235
0.0796157
0.0802969
0.0809493
0.0815544
0.0820987
0.0825723
0.0829609
0.0832471
0.0834011
0.083409
0.0832797
0.0830345
0.0826945
0.0822694
0.0817722
0.0812169
0.0806125
0.0799774
0.079327
0.0786754
0.078031
0.077403
0.0767973
0.0762182
0.0756664
0.0751506
0.0746796
0.0742468
0.0738531
0.0734939
0.0731673
0.0728699
0.0725984
0.0723624
0.0721793
0.0720508
0.0697061
0.0697826
0.0699352
0.0701296
0.070355
0.0706093
0.0708926
0.0712053
0.0715459
0.0719156
0.0723136
0.0727443
0.0732051
0.0736942
0.0742124
0.0747558
0.0753199
0.0758959
0.0764752
0.0770478
0.0776058
0.0781348
0.0786214
0.07906
0.0794362
0.0797469
0.0799754
0.0801159
0.0801582
0.0801022
0.0799598
0.0797381
0.0794447
0.0790843
0.0786657
0.0781988
0.0776992
0.0771768
0.0766431
0.0761069
0.0755769
0.0750589
0.0745598
0.0740815
0.0736262
0.0732053
0.0728185
0.0724613
0.0721338
0.0718359
0.0715659
0.0713267
0.0711265
0.0709809
0.0708864
0.0680463
0.0681149
0.0682536
0.0684336
0.0686386
0.0688679
0.069122
0.0694021
0.0697089
0.0700429
0.0704023
0.0707869
0.0711974
0.071633
0.0720911
0.0725691
0.0730602
0.0735576
0.0740523
0.0745388
0.0750082
0.0754485
0.0758534
0.0762155
0.0765261
0.0767812
0.0769765
0.077102
0.0771524
0.0771457
0.077071
0.0769324
0.0767302
0.076467
0.0761519
0.075791
0.0753978
0.074978
0.0745406
0.0740954
0.0736525
0.0732141
0.0727871
0.0723772
0.0719826
0.0716109
0.0712704
0.0709538
0.0706623
0.0703976
0.070158
0.0699473
0.0697747
0.0696409
0.0695665
0.0663204
0.0663785
0.0664995
0.0666585
0.0668394
0.0670411
0.067266
0.0675165
0.0677926
0.0680943
0.0684207
0.0687711
0.0691433
0.069535
0.0699448
0.0703716
0.0708069
0.0712442
0.0716762
0.0720975
0.0725014
0.0728763
0.0732175
0.073522
0.0737842
0.0739996
0.0741667
0.0742811
0.0743419
0.074346
0.0743103
0.0742286
0.0740898
0.0738999
0.0736637
0.0733855
0.0730753
0.0727384
0.0723833
0.0720182
0.0716503
0.0712819
0.0709206
0.0705732
0.0702364
0.0699134
0.0696162
0.0693444
0.0690904
0.0688584
0.0686477
0.0684618
0.0683132
0.0682087
0.0681386
0.0645374
0.0645872
0.0646856
0.064817
0.0649709
0.065146
0.0653461
0.0655717
0.0658239
0.0661013
0.0664012
0.066724
0.0670676
0.0674255
0.0677977
0.0681835
0.068574
0.0689633
0.0693434
0.0697124
0.0700627
0.0703868
0.0706777
0.0709366
0.0711593
0.0713414
0.0714828
0.0715849
0.0716469
0.07167
0.0716511
0.0715864
0.0714976
0.0713669
0.0711924
0.0709796
0.0707364
0.070469
0.0701823
0.0698858
0.0695831
0.0692779
0.0689772
0.0686871
0.0684059
0.0681339
0.0678782
0.0676513
0.0674352
0.0672344
0.0670515
0.0668889
0.0667576
0.0666732
0.0666146
0.062666
0.062705
0.0627854
0.0628984
0.063029
0.0631848
0.06337
0.0635822
0.0638197
0.0640819
0.0643641
0.0646661
0.0649856
0.0653194
0.0656625
0.0660115
0.066363
0.0667101
0.0670462
0.0673706
0.0676744
0.0679509
0.0682003
0.0684204
0.0686082
0.0687604
0.068879
0.0689688
0.0690288
0.0690596
0.0690579
0.0690214
0.0689447
0.0688365
0.068731
0.0685717
0.0683864
0.0681792
0.0679538
0.0677157
0.0674705
0.0672219
0.0669762
0.0667383
0.0665091
0.066288
0.0660759
0.0658869
0.0657106
0.0655409
0.0653837
0.0652427
0.0651293
0.0650552
0.064995
0.0606611
0.0607017
0.0607771
0.0608837
0.0610136
0.0611701
0.061354
0.0615636
0.0617968
0.0620496
0.0623203
0.0626072
0.0629061
0.0632169
0.0635329
0.0638512
0.0641671
0.0644762
0.0647725
0.0650543
0.0653156
0.065553
0.0657633
0.065947
0.0661034
0.0662298
0.0663285
0.0664034
0.0664584
0.0664914
0.0665005
0.066485
0.0664412
0.0663678
0.0662613
0.0661509
0.0660281
0.0658768
0.065706
0.0655211
0.065329
0.0651324
0.0649379
0.0647482
0.0645656
0.0643893
0.0642186
0.0640607
0.0639166
0.0637778
0.0636434
0.0635224
0.0634238
0.0633522
0.0633101
0.0585843
0.0586194
0.0587051
0.0588242
0.0589692
0.0591388
0.0593308
0.0595425
0.0597737
0.0600204
0.0602804
0.0605527
0.0608337
0.06112
0.0614086
0.0616963
0.0619782
0.0622495
0.0625061
0.0627473
0.0629705
0.0631699
0.0633465
0.0634981
0.0636263
0.0637305
0.0638133
0.0638768
0.0639249
0.0639586
0.063976
0.0639751
0.0639528
0.0639103
0.063843
0.0637541
0.0636472
0.0635491
0.0634419
0.0633099
0.0631667
0.0630193
0.0628704
0.0627245
0.0625835
0.0624437
0.0623067
0.062175
0.0620548
0.0619414
0.0618291
0.0617273
0.0616458
0.0615701
0.0615302
0.0565585
0.0566081
0.0566971
0.0568222
0.056973
0.057145
0.0573376
0.0575474
0.057771
0.0580072
0.0582526
0.0585064
0.0587657
0.0590271
0.0592861
0.0595412
0.0597879
0.0600209
0.0602401
0.0604429
0.0606273
0.0607936
0.0609396
0.0610638
0.0611676
0.0612531
0.0613243
0.0613821
0.0614269
0.0614608
0.0614842
0.061495
0.0614919
0.0614732
0.0614363
0.0613855
0.0613191
0.0612386
0.0611462
0.0610722
0.0609839
0.0608792
0.060771
0.0606615
0.0605531
0.0604435
0.0603351
0.0602276
0.0601249
0.0600328
0.0599419
0.0598564
0.0597878
0.0597319
0.0596947
0.0546731
0.0547049
0.0547853
0.0548975
0.0550354
0.0551967
0.0553777
0.055576
0.0557867
0.0560066
0.0562352
0.0564671
0.0567002
0.0569331
0.0571613
0.0573817
0.0575924
0.0577897
0.057973
0.0581409
0.0582917
0.0584271
0.0585471
0.0586484
0.0587328
0.0588048
0.0588663
0.0589198
0.0589644
0.0590008
0.0590297
0.0590501
0.0590618
0.0590645
0.0590557
0.0590341
0.0590002
0.0589568
0.0589026
0.0588293
0.0587502
0.0587088
0.058638
0.0585581
0.0584776
0.0583922
0.0583056
0.0582204
0.0581363
0.0580619
0.0579924
0.0579268
0.0578758
0.0578303
0.0577991
0.0528023
0.0528241
0.0528932
0.0529879
0.053114
0.0532643
0.0534341
0.0536188
0.0538151
0.0540171
0.0542234
0.0544297
0.0546345
0.0548348
0.0550285
0.0552151
0.0553913
0.0555543
0.055705
0.0558423
0.0559662
0.056076
0.0561714
0.0562545
0.0563255
0.0563885
0.0564434
0.0564932
0.0565383
0.056578
0.0566139
0.0566439
0.0566687
0.0566902
0.0567034
0.0567055
0.0566975
0.056681
0.0566544
0.056614
0.0565625
0.0565022
0.0564414
0.0564084
0.0563608
0.0562972
0.0562307
0.056168
0.0561062
0.0560497
0.056001
0.0559562
0.0559224
0.0558935
0.0558787
0.0508871
0.0509277
0.0509996
0.0510932
0.0512162
0.0513589
0.0515161
0.0516827
0.0518548
0.0520323
0.0522107
0.0523874
0.0525597
0.0527273
0.0528879
0.0530411
0.0531836
0.0533156
0.0534371
0.0535471
0.0536476
0.0537371
0.0538162
0.0538863
0.0539485
0.0540047
0.0540558
0.0541057
0.0541538
0.0541999
0.0542434
0.0542832
0.0543194
0.0543527
0.0543805
0.0544004
0.0544112
0.0544129
0.054406
0.0543893
0.054363
0.0543269
0.0542823
0.05424
0.0541971
0.0541517
0.0541317
0.0540979
0.0540584
0.0540211
0.0539907
0.0539661
0.0539506
0.05394
0.0539341
0.0490826
0.0491118
0.0491806
0.0492691
0.0493741
0.0494917
0.0496194
0.0497552
0.0498963
0.0500413
0.0501872
0.0503312
0.0504718
0.0506065
0.0507346
0.050857
0.0509711
0.0510764
0.0511747
0.0512646
0.0513463
0.0514204
0.0514873
0.0515487
0.0516055
0.0516585
0.0517103
0.051762
0.0518147
0.0518669
0.0519179
0.0519669
0.0520129
0.0520539
0.0520896
0.0521213
0.0521446
0.0521592
0.0521671
0.0521671
0.0521591
0.0521441
0.0521228
0.0521002
0.0520774
0.0520522
0.0520267
0.0520098
0.0519997
0.0519904
0.0519779
0.0519711
0.0519714
0.0519717
0.0519849
0.0472379
0.0472642
0.0473271
0.0474034
0.0474864
0.0475773
0.0476767
0.0477843
0.0478971
0.0480139
0.0481309
0.0482475
0.0483611
0.0484687
0.0485708
0.0486674
0.0487582
0.0488435
0.0489239
0.0489982
0.0490659
0.0491296
0.0491889
0.0492443
0.0492997
0.049355
0.049409
0.0494641
0.0495218
0.0495801
0.0496377
0.0496934
0.0497448
0.049793
0.0498349
0.049871
0.049902
0.049928
0.0499476
0.0499617
0.0499696
0.0499731
0.0499727
0.0499707
0.0499685
0.0499665
0.0499641
0.0499636
0.0499619
0.0499593
0.049962
0.0499731
0.0499889
0.0500044
0.0500144
0.0451594
0.0451957
0.0452806
0.0453698
0.0454586
0.0455502
0.0456447
0.0457424
0.045842
0.0459419
0.0460397
0.0461362
0.0462298
0.0463181
0.0464005
0.0464789
0.0465533
0.0466235
0.0466911
0.0467542
0.0468141
0.0468719
0.0469279
0.0469827
0.0470383
0.0470957
0.0471547
0.0472148
0.0472751
0.0473356
0.0473961
0.0474543
0.0475091
0.0475616
0.0476099
0.0476513
0.0476891
0.0477232
0.0477532
0.0477812
0.0478055
0.0478267
0.0478465
0.0478646
0.047883
0.0479017
0.0479198
0.0479372
0.0479536
0.0479664
0.047971
0.0479761
0.0479827
0.0479739
0.0480401
0.043059
0.0430843
0.0431842
0.0432967
0.0434007
0.0434976
0.0435899
0.0436801
0.0437688
0.0438545
0.0439374
0.0440171
0.0440936
0.0441662
0.044236
0.0443015
0.0443626
0.0444226
0.044481
0.0445372
0.0445921
0.0446464
0.0447025
0.0447591
0.0448176
0.0448776
0.04494
0.045004
0.0450675
0.0451291
0.0451894
0.0452489
0.0453057
0.04536
0.0454116
0.0454599
0.0455059
0.0455494
0.0455915
0.0456318
0.0456717
0.0457117
0.0457501
0.0457883
0.0458252
0.0458624
0.0458975
0.0459296
0.0459588
0.0459847
0.0460017
0.0460143
0.046026
0.0460353
0.0460382
0.0411725
0.0411953
0.0412596
0.0413394
0.041416
0.0414894
0.0415612
0.0416325
0.0417029
0.041772
0.0418403
0.0419063
0.0419693
0.0420295
0.0420865
0.0421407
0.0421936
0.0422461
0.0422982
0.0423506
0.0424045
0.0424591
0.0425157
0.042575
0.0426347
0.0426963
0.0427599
0.0428238
0.0428874
0.0429499
0.0430106
0.0430702
0.0431282
0.0431854
0.0432437
0.0433004
0.0433552
0.0434105
0.0434656
0.0435205
0.0435746
0.0436301
0.0436854
0.0437403
0.0437934
0.0438442
0.0438923
0.0439361
0.0439743
0.0440086
0.0440357
0.0440539
0.0440639
0.0440671
0.0440541
0.039194
0.0392063
0.0392385
0.0392957
0.0393591
0.0394257
0.0394942
0.0395613
0.0396275
0.0396904
0.0397501
0.0398067
0.0398602
0.0399094
0.0399567
0.040004
0.0400513
0.0400993
0.0401485
0.0401996
0.0402529
0.0403089
0.0403662
0.0404265
0.0404874
0.0405491
0.0406104
0.0406715
0.0407336
0.0407965
0.0408568
0.0409168
0.0409776
0.0410423
0.0411082
0.0411746
0.0412403
0.0413073
0.0413758
0.0414444
0.041513
0.0415814
0.041649
0.0417158
0.0417809
0.0418419
0.0418989
0.0419514
0.0419968
0.0420365
0.0420688
0.042092
0.0421006
0.0420948
0.0420831
0.0370756
0.0370834
0.0371088
0.0371693
0.0372508
0.0373381
0.0374216
0.0374977