/*--------------------------------*- C++ -*----------------------------------*\
  =========                 |
  \\      /  F ield         | OpenFOAM: The Open Source CFD Toolbox
   \\    /   O peration     | Website:  https://openfoam.org
    \\  /    A nd           | Version:  7
     \\/     M anipulation  |
\*---------------------------------------------------------------------------*/
FoamFile
{
    version     2.0;
    format      ascii;
    class       surfaceScalarField;
    location    "5";
    object      phi;
}
// * * * * * * * * * * * * * * * * * * * * * * * * * * * * * * * * * * * * * //

dimensions      [0 3 -1 0 0 0 0];

internalField   nonuniform List<scalar> 
34768
(
6.20008e-05
0.000985569
-0.000146532
-2.66009e-05
1.25145e-05
0.00091627
-8.11271e-06
6.44704e-06
0.000904176
-5.47846e-06
4.88739e-06
0.000903344
-4.06161e-06
3.69707e-06
0.00090322
-3.59841e-06
3.39036e-06
0.000903053
-3.21394e-06
3.1946e-06
0.000903053
-3.19088e-06
3.22685e-06
0.000903089
-2.96974e-06
2.9427e-06
0.000903247
-3.11681e-06
2.91613e-06
0.000903318
-3.01258e-06
2.93183e-06
0.000903298
-2.94478e-06
3.17958e-06
0.000903283
-3.00562e-06
2.95322e-06
0.000903572
-3.18988e-06
3.14835e-06
0.000903563
-3.19436e-06
3.36233e-06
0.000903556
-3.31629e-06
3.29254e-06
0.00090385
-3.5541e-06
3.53804e-06
0.000903745
-3.50648e-06
3.69742e-06
0.000903839
-3.67253e-06
3.6699e-06
0.000903935
-3.85114e-06
3.75454e-06
0.00090413
-4.14197e-06
4.75096e-06
0.000904125
-5.54379e-06
6.35759e-06
0.00090522
-5.20555e-06
4.36407e-06
0.000904896
-3.59677e-06
4.06917e-06
0.000904632
-5.32526e-06
-3.7904e-07
0.000909308
-6.81529e-07
1.25909e-06
0.000908655
-1.15127e-06
8.10018e-07
0.000909463
-5.05548e-07
-4.27644e-08
0.00090967
6.11195e-07
-8.94702e-07
0.000909401
1.26102e-06
-1.37427e-06
0.00090923
1.41189e-06
-1.45777e-06
0.000909171
1.46769e-06
-1.4472e-06
0.000909093
1.44014e-06
-1.42407e-06
0.000909095
1.3709e-06
-1.36007e-06
0.000909108
1.36141e-06
-1.35643e-06
0.000909112
1.363e-06
-1.36447e-06
0.000909117
1.37677e-06
-1.38515e-06
0.000909122
1.40383e-06
-1.51955e-06
0.000909229
1.84513e-06
-1.2687e-06
0.000909936
8.01947e-07
-6.33529e-07
0.000910343
5.74623e-07
-5.14552e-07
0.000910352
5.64464e-07
-6.13572e-07
0.000910262
6.73446e-07
-7.32961e-07
0.000910274
8.04542e-07
-7.76361e-07
0.000910088
8.62111e-07
-9.49006e-07
0.000910105
1.05227e-06
-1.15861e-06
0.000910027
1.28448e-06
-1.41674e-06
0.000909955
1.5727e-06
-1.74121e-06
0.000909995
1.93946e-06
-2.26112e-06
0.000910052
2.42087e-06
-2.72385e-06
0.000910036
3.08228e-06
-3.61777e-06
0.000910171
4.04012e-06
-4.6883e-06
0.000910283
5.4228e-06
-6.02539e-06
0.000910128
6.35723e-06
-5.13632e-06
0.000908286
-5.11638e-06
-2.38241e-05
0.000938429
-0.000848229
0.0001451
0.000719441
-1.71159e-05
-0.000963115
-0.000154533
0.000126579
0.000990596
-0.000922533
-0.000100969
8.11775e-05
0.000942206
-0.000911723
-6.62456e-05
5.48773e-05
0.000923188
-0.000907765
-4.58989e-05
3.90703e-05
0.000914761
-0.000905978
-3.35463e-05
2.92213e-05
0.000910459
-0.000904884
-2.51068e-05
2.25253e-05
0.000907576
-0.000904224
-1.98621e-05
1.77626e-05
0.000906391
-0.000904
-1.58305e-05
1.44051e-05
0.000905463
-0.000903817
-1.31575e-05
1.20214e-05
0.000904971
-0.00090382
-1.09062e-05
1.02462e-05
0.000904491
-0.000903679
-9.36612e-06
8.70792e-06
0.000904348
-0.000903577
-8.20069e-06
7.59671e-06
0.000904197
-0.000903801
-7.01758e-06
6.73306e-06
0.000904109
-0.000903741
-6.35472e-06
5.96839e-06
0.000904162
-0.000903693
-5.87088e-06
5.56706e-06
0.000904043
-0.000903853
-5.23899e-06
5.10808e-06
0.000904043
-0.000903819
-5.03999e-06
4.87315e-06
0.000904056
-0.000903888
-4.7602e-06
4.65374e-06
0.000904077
-0.000903961
-4.69186e-06
4.74065e-06
0.000904004
-0.000904236
-4.42711e-06
4.5278e-06
0.000904238
-0.000904013
-4.75879e-06
4.10624e-06
0.000904777
-0.000907072
-4.15901e-06
7.05941e-06
0.00090429
-0.000903415
-5.82971e-06
3.08725e-07
0.000909061
-0.00090794
-1.40204e-06
1.49003e-06
0.000907982
-0.00090841
-1.33812e-06
1.36756e-06
0.000908512
-0.000909694
-1.29419e-06
1.61691e-06
0.000909504
-0.000910187
-1.67061e-06
1.3365e-06
0.000910653
-0.000909616
-9.0064e-07
1.03511e-06
0.000909611
-0.000909422
-1.16973e-06
7.87879e-07
0.000909928
-0.000909204
-5.6858e-07
6.03439e-07
0.000909287
-0.000909069
-6.42222e-07
7.65782e-07
0.000909056
-0.000909078
-7.96306e-07
8.8216e-07
0.000909094
-0.00090912
-9.28483e-07
9.71028e-07
0.000909169
-0.000909144
-8.28859e-07
9.2407e-07
0.00090913
-0.00090917
-8.39121e-07
7.83267e-07
0.000909295
-0.000909198
-6.52614e-07
5.43287e-07
0.000909366
-0.000909628
-2.63276e-07
-2.24073e-09
0.000909941
-0.000909861
7.34698e-07
-1.05988e-06
0.000910225
-0.000910199
1.05147e-06
-1.14148e-06
0.00091032
-0.000910443
1.19814e-06
-1.35943e-06
0.000910628
-0.000910495
1.69249e-06
-2.03688e-06
0.000910858
-0.00091046
2.46081e-06
-2.905e-06
0.000910921
-0.000910445
3.44394e-06
-4.11594e-06
0.000911133
-0.000910459
4.80344e-06
-5.64324e-06
0.000911317
-0.000910516
6.53183e-06
-7.70249e-06
0.00091171
-0.000910739
8.86945e-06
-1.02636e-05
0.000912167
-0.000910966
1.18286e-05
-1.37926e-05
0.000912982
-0.00091146
1.59433e-05
-1.85095e-05
0.000914107
-0.000912133
2.15508e-05
-2.53144e-05
0.000916014
-0.000913394
2.98697e-05
-3.53282e-05
0.00091901
-0.000915535
4.2247e-05
-5.07187e-05
0.000924194
-0.000919104
6.19613e-05
-7.63664e-05
0.000933685
-0.000926405
9.68259e-05
-0.000129287
0.000958951
-0.000989774
0.000171721
-0.000142934
0.000960951
-0.000616811
8.17087e-05
0.000538834
-3.86937e-06
-0.00100308
-0.000128747
0.00013023
0.00100137
-0.000959771
-0.000115965
0.000100558
0.000974879
-0.000934977
-8.76049e-05
7.63882e-05
0.000945921
-0.000922647
-6.70763e-05
5.90167e-05
0.000930508
-0.000915968
-5.21177e-05
4.63208e-05
0.000921619
-0.000911883
-4.13161e-05
3.69334e-05
0.000916139
-0.000908936
-3.31912e-05
2.92684e-05
0.000912738
-0.000907594
-2.652e-05
2.40605e-05
0.000909935
-0.0009065
-2.17497e-05
1.96403e-05
0.000908496
-0.000905859
-1.77991e-05
1.61028e-05
0.000907453
-0.000905247
-1.48116e-05
1.33324e-05
0.000906637
-0.00090509
-1.20111e-05
1.10879e-05
0.000905942
-0.000904738
-9.88307e-06
8.96933e-06
0.000905598
-0.000904557
-8.24503e-06
7.51162e-06
0.000905258
-0.000904523
-6.73985e-06
6.26321e-06
0.000904987
-0.000904222
-5.72836e-06
5.29588e-06
0.000904662
-0.000904243
-4.78664e-06
4.48718e-06
0.000904568
-0.000904179
-4.19652e-06
4.12317e-06
0.000904296
-0.000904227
-3.64423e-06
3.58934e-06
0.000904341
-0.000903985
-3.71882e-06
3.07698e-06
0.000904701
-0.000905055
-2.60885e-06
3.67185e-06
0.000904077
-0.000906348
-1.474e-06
-1.92265e-07
0.000908111
-0.000908233
-1.77985e-07
5.08439e-07
0.000908007
-0.000908109
-9.52329e-07
9.59575e-07
0.000908212
-0.000908378
-9.12057e-07
8.90452e-07
0.000908513
-0.00090894
-1.11465e-06
1.53364e-06
0.000908636
-0.000910967
-1.94484e-06
1.78504e-06
0.00091124
-0.000909511
-1.53225e-06
1.74512e-06
0.000909408
-0.000910184
-2.00269e-06
2.19567e-06
0.000910096
-0.000909197
-2.08057e-06
2.19486e-06
0.000909181
-0.000908921
-2.38815e-06
2.63596e-06
0.000908762
-0.000909004
-2.78321e-06
2.95047e-06
0.000908914
-0.000909051
-3.06882e-06
3.04248e-06
0.000909142
-0.00090928
-3.12102e-06
3.09147e-06
0.00090936
-0.000909419
-2.97241e-06
2.83227e-06
0.000909594
-0.000909566
-2.60912e-06
2.25244e-06
0.000909941
-0.000910722
-1.41977e-06
4.13004e-08
0.000912101
-0.000910491
8.40654e-09
-1.16163e-07
0.000910583
-0.000910577
5.88546e-07
-1.13207e-06
0.000911087
-0.000910987
1.63678e-06
-2.32749e-06
0.000911628
-0.000911334
2.98027e-06
-3.83669e-06
0.000912124
-0.000911638
4.76011e-06
-5.8079e-06
0.000912606
-0.000912027
6.93603e-06
-8.21699e-06
0.000913216
-0.000912542
9.70109e-06
-1.1275e-05
0.000914016
-0.000913148
1.29889e-05
-1.50452e-05
0.000915098
-0.000914142
1.7198e-05
-1.97656e-05
0.000916605
-0.000915479
2.26198e-05
-2.57917e-05
0.000918553
-0.000917619
2.94882e-05
-3.36538e-05
0.000921704
-0.000920806
3.85569e-05
-4.4267e-05
0.000926462
-0.000926075
5.09443e-05
-5.88054e-05
0.000933907
-0.000934787
6.80302e-05
-7.91549e-05
0.000945883
-0.000950679
9.26744e-05
-0.00010963
0.000967591
-0.000990155
0.000131311
-0.000152616
0.00101143
-0.000905614
0.000148564
-8.03456e-05
0.00083741
-0.000481966
4.5352e-05
0.000438789
-2.15324e-06
-0.000989231
-9.01995e-05
0.000108472
0.000970884
-0.000986786
-0.000107452
9.9177e-05
0.000994832
-0.000955802
-8.99486e-05
8.12161e-05
0.000964219
-0.000938186
-7.3416e-05
6.6292e-05
0.000945009
-0.000927472
-6.00374e-05
5.42476e-05
0.000933019
-0.000920683
-4.91647e-05
4.44701e-05
0.000925188
-0.000916197
-4.03338e-05
3.65107e-05
0.000919867
-0.000913159
-3.3233e-05
3.01001e-05
0.000916161
-0.000910654
-2.72176e-05
2.41233e-05
0.000913632
-0.00090928
-2.2018e-05
1.97634e-05
0.000911431
-0.000908225
-1.76355e-05
1.59388e-05
0.000909829
-0.000907253
-1.42277e-05
1.263e-05
0.000908772
-0.000906577
-1.11833e-05
9.84454e-06
0.000907853
-0.000906237
-8.52942e-06
7.52493e-06
0.000907198
-0.000905587
-6.61961e-06
5.72893e-06
0.000906453
-0.000905298
-4.81792e-06
4.02961e-06
0.000906082
-0.000904949
-3.50312e-06
3.00898e-06
0.000905459
-0.000904731
-2.46144e-06
2.05505e-06
0.000905172
-0.000904334
-1.98068e-06
1.15343e-06
0.000905213
-0.000905059
-6.49139e-07
1.49893e-06
0.000904276
-0.000906317
8.5522e-07
-2.62888e-06
0.000908171
-0.00090769
2.32165e-06
-2.26755e-06
0.000907727
-0.000907594
1.88899e-06
-1.50292e-06
0.000907306
-0.000907757
1.25712e-06
-5.51853e-07
0.000907155
-0.000908934
3.93616e-08
-7.25401e-08
0.000909072
-0.000907929
-4.57345e-07
1.09469e-06
0.000907397
-0.000911143
-1.52396e-06
1.80475e-06
0.000910965
-0.000909042
-1.81803e-06
2.30107e-06
0.000908658
-0.000909242
-2.92125e-06
3.63769e-06
0.000908616
-0.000909374
-3.47648e-06
3.68773e-06
0.000909245
-0.000908468
-4.05018e-06
4.46401e-06
0.000908124
-0.000908708
-4.77775e-06
5.07274e-06
0.00090847
-0.000909059
-5.17789e-06
5.41438e-06
0.000908864
-0.000909403
-5.44441e-06
5.41688e-06
0.000909453
-0.000909769
-5.28873e-06
5.18622e-06
0.000909875
-0.000910255
-4.79216e-06
4.20773e-06
0.000910822
-0.00091326
-3.14088e-06
2.56752e-06
0.000913794
-0.000911092
-1.92147e-06
1.15347e-06
0.0009118
-0.000911754
-4.21883e-07
-4.46845e-07
0.000912541
-0.000912364
1.37206e-06
-2.5519e-06
0.000913444
-0.000913151
3.68698e-06
-4.8956e-06
0.000914244
-0.00091385
6.26455e-06
-7.82845e-06
0.000915287
-0.000914822
9.56499e-06
-1.13232e-05
0.000916447
-0.000915949
1.33795e-05
-1.55926e-05
0.000918028
-0.00091735
1.79424e-05
-2.06928e-05
0.000919971
-0.000919305
2.3535e-05
-2.68375e-05
0.000922488
-0.000922196
3.03191e-05
-3.43404e-05
0.000926112
-0.000926354
3.86504e-05
-4.36074e-05
0.000931222
-0.000932505
4.91077e-05
-5.5195e-05
0.000938523
-0.000941781
6.21247e-05
-6.99318e-05
0.00094953
-0.000956599
7.87263e-05
-8.85234e-05
0.000966331
-0.000982428
9.91844e-05
-0.000111711
0.000994901
-0.00102084
0.000123031
-0.0001225
0.00102036
-0.000770027
9.26597e-05
-3.37315e-05
0.000711294
-0.000405824
2.74058e-05
0.000380013
-1.40307e-06
-0.000949775
-6.23206e-05
8.45894e-05
0.000927591
-0.000999847
-9.14346e-05
8.95781e-05
0.00100161
-0.00097143
-8.46122e-05
7.83514e-05
0.000977445
-0.000951293
-7.24134e-05
6.66175e-05
0.000956796
-0.000938474
-6.12997e-05
5.62149e-05
0.000943298
-0.000929707
-5.15854e-05
4.71244e-05
0.00093397
-0.00092367
-4.3067e-05
3.93033e-05
0.000927292
-0.000919262
-3.57703e-05
3.24277e-05
0.000922506
-0.000916133
-2.94619e-05
2.66761e-05
0.000918847
-0.00091382
-2.41114e-05
2.16134e-05
0.000916266
-0.000911967
-1.88933e-05
1.6637e-05
0.000914183
-0.000910505
-1.47374e-05
1.2891e-05
0.000912324
-0.00090952
-1.08688e-05
9.40247e-06
0.000910971
-0.000908216
-7.94429e-06
6.44073e-06
0.000909719
-0.000907445
-5.12534e-06
3.87252e-06
0.000908713
-0.000906856
-2.79871e-06
2.09898e-06
0.000907589
-0.000906221
-9.59282e-07
4.05213e-07
0.000906825
-0.000905227
-4.5492e-09
-1.30564e-06
0.000906604
-0.000905763
1.96883e-06
-1.22978e-06
0.000905107
-0.000906646
3.88062e-06
-5.97776e-06
0.00090884
-0.000907741
5.68228e-06
-5.775e-06
0.000907941
-0.000907368
5.4545e-06
-4.95282e-06
0.000906983
-0.000906934
4.63579e-06
-3.95695e-06
0.000906377
-0.000906556
3.33535e-06
-2.64882e-06
0.000905994
-0.000908504
2.01467e-06
-1.39633e-06
0.000908009
-0.00090672
5.40863e-07
4.19404e-07
0.000905881
-0.000910622
-1.13423e-06
1.65899e-06
0.000910213
-0.000908108
-2.13889e-06
2.791e-06
0.000907565
-0.000908024
-3.61636e-06
4.3898e-06
0.000907351
-0.000908842
-4.78804e-06
5.37052e-06
0.000908348
-0.000907636
-5.99148e-06
6.62859e-06
0.000907074
-0.000908122
-7.13907e-06
7.58777e-06
0.000907732
-0.000908697
-7.93978e-06
8.17645e-06
0.000908501
-0.000909374
-8.27915e-06
8.2836e-06
0.000909389
-0.000910093
-8.16206e-06
7.92371e-06
0.000910329
-0.000912243
-7.37016e-06
6.0806e-06
0.000913508
-0.000913427
-5.08796e-06
4.84306e-06
0.000913627
-0.000912444
-4.10513e-06
3.20653e-06
0.00091328
-0.000913504
-2.12654e-06
9.7449e-07
0.000914576
-0.000914532
2.52178e-07
-1.76376e-06
0.000915953
-0.000915777
3.25038e-06
-4.92826e-06
0.00091736
-0.000916991
6.68811e-06
-8.75371e-06
0.000918963
-0.00091856
1.0818e-05
-1.30977e-05
0.000920753
-0.000920406
1.56049e-05
-1.82417e-05
0.000922971
-0.000922787
2.1043e-05
-2.40956e-05
0.000925784
-0.000925848
2.73682e-05
-3.11265e-05
0.000929569
-0.000930253
3.49647e-05
-3.91206e-05
0.000934389
-0.00093611
4.36364e-05
-4.86261e-05
0.000941096
-0.000944577
5.40535e-05
-5.99144e-05
0.000950445
-0.000956894
6.57919e-05
-7.17692e-05
0.000962889
-0.000974801
7.91794e-05
-8.71656e-05
0.000982817
-0.00100496
9.57206e-05
-0.000103286
0.0010126
-0.00101307
0.000105535
-9.37311e-05
0.00100145
-0.00066156
6.15656e-05
-1.96866e-05
0.000620008
-0.000359615
1.74253e-05
0.000343387
-9.63567e-07
-0.000905954
-4.32448e-05
6.37648e-05
0.000885542
-0.00100105
-7.41865e-05
7.65868e-05
0.000998588
-0.00098188
-7.50476e-05
7.15921e-05
0.000985108
-0.000961857
-6.77325e-05
6.34435e-05
0.000965833
-0.000948371
-5.93481e-05
5.53978e-05
0.000952009
-0.000938119
-5.10102e-05
4.65635e-05
0.000942305
-0.000931015
-4.23083e-05
3.85976e-05
0.000934527
-0.000925714
-3.51545e-05
3.17841e-05
0.000928944
-0.000921775
-2.87435e-05
2.58124e-05
0.000924613
-0.000918745
-2.30682e-05
2.04559e-05
0.000921301
-0.000916446
-1.80964e-05
1.57826e-05
0.00091873
-0.000914489
-1.37995e-05
1.15753e-05
0.000916708
-0.000912655
-9.35579e-06
7.41345e-06
0.000914613
-0.000911339
-5.55777e-06
3.89486e-06
0.000913039
-0.000909973
-2.30529e-06
1.0211e-06
0.000911314
-0.000908888
5.03284e-07
-1.59885e-06
0.000910062
-0.000907358
2.33762e-06
-4.0407e-06
0.000909157
-0.000907367
5.18387e-06
-4.66404e-06
0.000906962
-0.000907931
7.94661e-06
-1.01839e-05
0.000910299
-0.000908472
1.00261e-05
-1.03843e-05
0.000908976
-0.000907507
1.01084e-05
-9.85897e-06
0.000907413
-0.000906711
9.5952e-06
-8.83811e-06
0.000906117
-0.000905657
8.16633e-06
-7.33328e-06
0.000904989
-0.000905129
6.44979e-06
-5.49576e-06
0.00090434
-0.00090721
4.87801e-06
-3.54269e-06
0.000906036
-0.000904766
2.28418e-06
-8.93892e-07
0.000903533
-0.000909565
-2.83492e-07
1.32566e-06
0.000908672
-0.0009066
-2.17542e-06
3.4549e-06
0.000905461
-0.000906449
-4.58613e-06
5.96392e-06
0.000905199
-0.000907693
-7.20386e-06
7.66014e-06
0.000907352
-0.000906338
-8.41261e-06
9.32817e-06
0.000905522
-0.000907201
-1.0094e-05
1.07809e-05
0.000906595
-0.000908321
-1.12046e-05
1.16882e-05
0.000907898
-0.000909368
-1.18923e-05
1.20627e-05
0.000909236
-0.00091068
-1.18653e-05
1.13154e-05
0.000911246
-0.000915331
-9.81098e-06
8.34041e-06
0.000916796
-0.000913833
-8.61937e-06
8.22011e-06
0.000914208
-0.000914458
-7.19435e-06
6.08791e-06
0.000915525
-0.000915924
-4.86828e-06
3.3635e-06
0.00091738
-0.000917474
-1.74963e-06
4.92658e-08
0.000919121
-0.00091916
1.75495e-06
-3.74439e-06
0.000921097
-0.000921056
5.94793e-06
-8.23193e-06
0.000923296
-0.000923166
1.06407e-05
-1.33307e-05
0.000925824
-0.000925839
1.60665e-05
-1.89859e-05
0.000928741
-0.000929053
2.2185e-05
-2.54645e-05
0.000932328
-0.000933198
2.90513e-05
-3.2732e-05
0.000936886
-0.000938548
3.66516e-05
-4.08827e-05
0.000942793
-0.000945869
4.52753e-05
-4.92811e-05
0.000949897
-0.000954999
5.33682e-05
-5.84571e-05
0.000960121
-0.000969192
6.3946e-05
-6.96184e-05
0.000974918
-0.000989874
7.54347e-05
-8.13535e-05
0.000995883
-0.00101771
8.67014e-05
-8.94188e-05
0.00102057
-0.000987067
8.5527e-05
-6.95087e-05
0.000971269
-0.000585203
4.12748e-05
-1.21802e-05
0.000556409
-0.000330306
1.11283e-05
0.000319982
-6.4463e-07
-0.000866531
-2.96971e-05
4.68555e-05
0.000849412
-0.00099483
-5.78276e-05
6.23376e-05
0.000990249
-0.000987521
-6.31428e-05
6.16391e-05
0.000988804
-0.000969202
-5.93683e-05
5.62285e-05
0.000972017
-0.000955683
-5.33184e-05
4.98923e-05
0.000958756
-0.000945825
-4.6644e-05
4.32355e-05
0.000948908
-0.000938508
-4.00472e-05
3.67094e-05
0.000941571
-0.00093301
-3.35988e-05
3.06279e-05
0.000935767
-0.000927598
-2.68224e-05
2.30251e-05
0.000931236
-0.000923926
-1.89987e-05
1.6262e-05
0.000926555
-0.000920896
-1.36726e-05
1.11757e-05
0.000923328
-0.000918511
-8.90274e-06
6.76072e-06
0.000920629
-0.000916662
-4.91879e-06
3.34259e-06
0.000918249
-0.000914717
-1.94757e-06
1.40551e-07
0.00091657
-0.000913118
2.10476e-06
-3.81388e-06
0.000914903
-0.000910965
5.16278e-06
-7.3589e-06
0.000913268
-0.000910449
8.98705e-06
-8.8097e-06
0.000910404
-0.000910474
1.26588e-05
-1.43706e-05
0.000912344
-0.000910729
1.4998e-05
-1.60691e-05
0.000911979
-0.000908745
1.62859e-05
-1.62547e-05
0.000908911
-0.000907049
1.61891e-05
-1.56569e-05
0.000906726
-0.000905332
1.48935e-05
-1.41308e-05
0.000904786
-0.000903997
1.3187e-05
-1.19216e-05
0.00090295
-0.000903737
1.0663e-05
-9.36044e-06
0.00090265
-0.000903871
8.53024e-06
-6.45508e-06
0.000902006
-0.000901866
4.56569e-06
-2.59531e-06
0.000900098
-0.000907445
8.61481e-07
7.48477e-07
0.000906028
-0.000904035
-2.24193e-06
4.10069e-06
0.000902359
-0.000903019
-5.86521e-06
7.80959e-06
0.000901243
-0.000907807
-9.78757e-06
1.0452e-05
0.000907296
-0.000904611
-1.14978e-05
1.27868e-05
0.000903457
-0.000905822
-1.3886e-05
1.48701e-05
0.000904952
-0.000907464
-1.56187e-05
1.62002e-05
0.000906974
-0.000909252
-1.6543e-05
1.67113e-05
0.00090915
-0.000912515
-1.66563e-05
1.59145e-05
0.000913298
-0.000916723
-1.44683e-05
1.43111e-05
0.000916898
-0.000914982
-1.36673e-05
1.27194e-05
0.000915928
-0.000916726
-1.15104e-05
1.01017e-05
0.000918118
-0.000918896
-8.64813e-06
6.89711e-06
0.000920619
-0.000921043
-5.11707e-06
3.0487e-06
0.000923078
-0.000923314
-9.59793e-07
-1.40749e-06
0.000925649
-0.000925705
3.7891e-06
-6.43884e-06
0.000928326
-0.00092853
9.11061e-06
-1.19402e-05
0.000931336
-0.000931756
1.48975e-05
-1.81067e-05
0.000934947
-0.000935664
2.13487e-05
-2.48345e-05
0.000939135
-0.000940564
2.8361e-05
-3.21269e-05
0.000944315
-0.000946524
3.48143e-05
-3.8134e-05
0.000949829
-0.000954067
4.23888e-05
-4.65254e-05
0.000958196
-0.00096502
5.08627e-05
-5.50293e-05
0.000969195
-0.00097982
5.95461e-05
-6.37876e-05
0.000984105
-0.00100067
6.79929e-05
-7.15272e-05
0.0010043
-0.00102113
7.37789e-05
-7.26721e-05
0.00102018
-0.000955002
6.5363e-05
-4.91912e-05
0.000939027
-0.000532583
2.64925e-05
-6.91388e-06
0.000513229
-0.000311753
7.01726e-06
0.000305258
-4.44443e-07
-0.000834037
-1.98908e-05
3.35561e-05
0.000820325
-0.000985157
-4.34601e-05
4.86233e-05
0.000979894
-0.000989547
-5.05228e-05
5.03504e-05
0.0009895
-0.000974334
-4.9248e-05
4.71072e-05
0.000976157
-0.000961604
-4.49504e-05
4.225e-05
0.000963948
-0.000951971
-3.96319e-05
3.66285e-05
0.000954629
-0.000944482
-3.38781e-05
3.07477e-05
0.000947303
-0.000938621
-2.8003e-05
2.48815e-05
0.000941484
-0.000933983
-2.2244e-05
1.93008e-05
0.000936721
-0.000930381
-1.67204e-05
1.4114e-05
0.000932837
-0.000927268
-1.16403e-05
9.09832e-06
0.000929711
-0.000922818
-5.53461e-06
1.85597e-06
0.000926447
-0.000920104
1.7264e-06
-5.2632e-06
0.000923635
-0.000917766
8.30729e-06
-1.02366e-05
0.000919735
-0.000915919
1.17992e-05
-1.25133e-05
0.000916712
-0.00091599
1.20546e-05
-9.81803e-06
0.000913875
-0.000914534
1.7872e-05
-2.02046e-05
0.000917026
-0.000913123
2.13678e-05
-2.24326e-05
0.000914382
-0.000912111
2.25275e-05
-2.25165e-05
0.000912324
-0.000909122
2.36355e-05
-2.39054e-05
0.00090964
-0.000906184
2.37188e-05
-2.30834e-05
0.000905812
-0.000903799
2.22853e-05
-2.09953e-05
0.000902782
-0.000901556
1.96848e-05
-1.79623e-05
0.000900107
-0.000901056
1.62408e-05
-1.41781e-05
0.000899263
-0.00090007
1.23583e-05
-9.95994e-06
0.000897933
-0.000897909
7.52888e-06
-4.8391e-06
0.00089547
-0.000904166
2.36636e-06
2.43503e-08
0.000902014
-0.00090024
-2.25625e-06
4.89772e-06
0.000897825
-0.000899168
-7.42975e-06
9.97248e-06
0.000896836
-0.000905959
-1.21063e-05
1.37626e-05
0.000904496
-0.000901986
-1.55793e-05
1.74027e-05
0.000900337
-0.000903866
-1.89169e-05
2.02849e-05
0.000902647
-0.000906343
-2.13178e-05
2.22395e-05
0.000905542
-0.000908979
-2.26462e-05
2.2726e-05
0.000908988
-0.000914774
-2.14274e-05
1.90953e-05
0.000917165
-0.000916736
-1.99806e-05
2.04102e-05
0.000916335
-0.000916976
-1.97257e-05
1.85034e-05
0.000918201
-0.000919643
-1.7096e-05
1.54571e-05
0.000921263
-0.000922395
-1.37683e-05
1.18589e-05
0.00092427
-0.000925071
-9.82226e-06
7.38154e-06
0.000927468
-0.000927934
-5.13764e-06
2.50582e-06
0.000930518
-0.000930982
2.20116e-07
-3.00699e-06
0.000933719
-0.000934348
5.97777e-06
-8.99306e-06
0.000937312
-0.000938098
1.21887e-05
-1.54095e-05
0.000941269
-0.000942611
1.84934e-05
-2.0769e-05
0.000944836
-0.000946877
2.40239e-05
-2.75702e-05
0.000950373
-0.000953572
3.11438e-05
-3.48771e-05
0.000957257
-0.000962134
3.84957e-05
-4.21067e-05
0.00096571
-0.000973119
4.5769e-05
-4.93275e-05
0.000976667
-0.0009878
5.27337e-05
-5.59869e-05
0.000991084
-0.00100695
5.9259e-05
-6.11492e-05
0.00100892
-0.00101788
6.11293e-05
-5.83609e-05
0.00101526
-0.000923636
5.07132e-05
-3.63809e-05
0.00090949
-0.00049721
1.85524e-05
-4.73043e-06
0.000483589
-0.000300076
4.4352e-06
0.000296077
-3.53591e-07
-0.000808434
-1.32436e-05
2.34915e-05
0.000798124
-0.000974346
-3.1776e-05
3.68916e-05
0.000969134
-0.000989114
-3.94869e-05
3.99581e-05
0.000988445
-0.000977637
-3.95618e-05
3.81103e-05
0.000978804
-0.000966596
-3.6525e-05
3.4681e-05
0.000968117
-0.000957228
-3.229e-05
2.95806e-05
0.000959618
-0.000950005
-2.68344e-05
2.37695e-05
0.000952775
-0.000944267
-2.04985e-05
1.76322e-05
0.000946878
-0.000939397
-1.48845e-05
1.19935e-05
0.000942077
-0.000935354
-9.3199e-06
6.56632e-06
0.000937946
-0.000932021
-4.00988e-06
1.44407e-06
0.000934474
-0.000929336
8.29011e-07
-2.84794e-06
0.000931293
-0.000925919
5.72996e-06
-8.80185e-06
0.000928975
-0.000922801
1.06836e-05
-1.29982e-05
0.000925149
-0.000921026
1.65891e-05
-1.80878e-05
0.000922603
-0.000915714
1.8351e-05
-2.81974e-05
0.00092569
-0.000917686
2.88223e-05
-3.05356e-05
0.000919577
-0.000914967
3.13756e-05
-3.19921e-05
0.000915807
-0.000912532
3.25447e-05
-3.22062e-05
0.000912455
-0.000910078
3.15951e-05
-3.24094e-05
0.000911188
-0.000904982
3.31192e-05
-3.25653e-05
0.000904744
-0.000901481
3.15107e-05
-2.9852e-05
0.00090015
-0.000898263
2.81315e-05
-2.58032e-05
0.000896262
-0.000897019
2.34529e-05
-2.06443e-05
0.000894532
-0.00089528
1.80105e-05
-1.47271e-05
0.000892304
-0.000892438
1.13727e-05
-7.65689e-06
0.000889015
-0.00089927
4.1451e-06
-7.11074e-07
0.000896113
-0.000894828
-2.55498e-06
6.2273e-06
0.000891419
-0.000893956
-9.76246e-06
1.33e-05
0.000890665
-0.000902458
-1.63448e-05
1.91035e-05
0.000899928
-0.00089831
-2.13725e-05
2.37964e-05
0.000896092
-0.000901171
-2.5858e-05
2.76597e-05
0.000899544
-0.000904683
-2.90261e-05
3.01018e-05
0.000903746
-0.000909223
-3.04786e-05
2.91603e-05
0.000910638
-0.000918567
-2.70023e-05
2.82803e-05
0.000917344
-0.000916311
-2.92423e-05
2.8604e-05
0.000916963
-0.000919453
-2.75252e-05
2.59506e-05
0.000921006
-0.000922939
-2.4391e-05
2.24573e-05
0.000924822
-0.000926521
-2.04843e-05
1.82638e-05
0.00092867
-0.000929835
-1.58428e-05
1.31992e-05
0.000932395
-0.000933158
-1.05852e-05
7.67498e-06
0.000935979
-0.000936694
-4.82233e-06
1.70046e-06
0.000939726
-0.000940479
1.34258e-06
-4.00564e-06
0.000943053
-0.000943669
6.26337e-06
-9.45748e-06
0.000946777
-0.000948285
1.28568e-05
-1.62351e-05
0.000951582
-0.000953902
1.96993e-05
-2.32014e-05
0.000957332
-0.000960784
2.68641e-05
-3.08459e-05
0.000964702
-0.000969245
3.44065e-05
-3.84348e-05
0.000973229
-0.000979946
4.27545e-05
-4.61176e-05
0.000983293
-0.00099439
4.85407e-05
-4.9762e-05
0.000995635
-0.00101045
4.96761e-05
-4.93629e-05
0.00101022
-0.00101029
4.78333e-05
-4.32283e-05
0.00100582
-0.000895525
3.4574e-05
-2.25673e-05
0.000883716
-0.000473184
1.02033e-05
-1.81121e-06
0.000465024
-0.00029281
2.83884e-06
0.000290371
-2.82819e-07
-0.000789287
-8.70392e-06
1.60333e-05
0.000781947
-0.000964179
-2.26427e-05
2.72174e-05
0.000959574
-0.000987688
-2.96412e-05
3.05493e-05
0.000986656
-0.00097988
-3.04937e-05
2.9577e-05
0.000980585
-0.000969921
-2.85361e-05
2.66206e-05
0.000971578
-0.000961896
-2.46072e-05
2.20762e-05
0.000964161
-0.000955357
-1.95366e-05
1.63522e-05
0.000958289
-0.000949856
-1.38375e-05
1.10794e-05
0.000952388
-0.000945249
-8.37151e-06
5.59498e-06
0.000947832
-0.000941347
-2.87497e-06
1.55473e-07
0.000943913
-0.000937006
3.34794e-06
-6.89281e-06
0.000940435
-0.000933535
1.05968e-05
-1.4693e-05
0.000937559
-0.000930472
1.76098e-05
-1.99201e-05
0.000932753
-0.000929029
2.16805e-05
-2.17442e-05
0.00092911
-0.000922965
2.2432e-05
-3.32864e-05
0.000933885
-0.000925493
3.34981e-05
-3.62575e-05
0.000928376
-0.000921928
3.87447e-05
-4.03149e-05
0.000923677
-0.000917037
4.21467e-05
-4.35984e-05
0.000918725
-0.000912384
4.5058e-05
-4.57373e-05
0.000913349
-0.000910332
4.57011e-05
-4.47039e-05
0.000909666
-0.000904629
4.49013e-05
-4.47696e-05
0.000904859
-0.000898524
4.36601e-05
-4.1472e-05
0.000896712
-0.000893802
3.91867e-05
-3.6171e-05
0.000891162
-0.000891451
3.30139e-05
-2.92173e-05
0.000888018
-0.000888624
2.54598e-05
-2.10284e-05
0.000884536
-0.0008848
1.63603e-05
-1.12578e-05
0.000880017
-0.000892135
6.30558e-06
-1.37963e-06
0.00088751
-0.000887209
-3.34946e-06
8.50231e-06
0.000882341
-0.000886693
-1.34051e-05
1.82186e-05
0.000882149
-0.000896762
-2.23905e-05
2.63341e-05
0.000893069
-0.000893748
-2.98596e-05
3.31092e-05
0.000890724
-0.000897601
-3.55432e-05
3.78414e-05
0.000895488
-0.000902845
-3.95588e-05
4.05623e-05
0.000901978
-0.000912402
-3.97862e-05
3.80892e-05
0.000914177
-0.000915714
-3.94906e-05
4.03483e-05
0.000914875
-0.000917964
-3.98899e-05
3.87438e-05
0.000919073
-0.000922553
-3.7247e-05
3.54863e-05
0.000924231
-0.000926932
-3.34636e-05
3.11083e-05
0.00092917
-0.000931153
-2.86637e-05
2.60321e-05
0.000933646
-0.000935077
-2.32588e-05
2.03392e-05
0.000937848
-0.000939001
-1.73083e-05
1.41749e-05
0.000941987
-0.000942605
-1.18087e-05
9.16847e-06
0.000945105
-0.000945745
-5.83467e-06
2.37339e-06
0.000949076
-0.000950268
1.23793e-06
-5.36337e-06
0.000954276
-0.000955211
9.21343e-06
-1.35448e-05
0.000959438
-0.000960928
1.84346e-05
-2.22542e-05
0.00096466
-0.000969479
2.45498e-05
-2.56868e-05
0.000970544
-0.000975262
2.77261e-05
-3.01554e-05
0.000977642
-0.000984983
3.2141e-05
-3.42981e-05
0.000987116
-0.000997228
3.62337e-05
-3.75682e-05
0.000998574
-0.00101005
3.8353e-05
-3.79867e-05
0.00100975
-0.0010014
3.60211e-05
-3.14865e-05
0.000996991
-0.00087318
2.4323e-05
-1.50254e-05
0.000864096
-0.000458478
6.28381e-06
-8.21639e-07
0.00045329
-0.00028828
1.76575e-06
0.000286799
-2.2533e-07
-0.0007756
-5.55375e-06
1.06367e-05
0.000770454
-0.000955561
-1.54939e-05
1.91674e-05
0.00095186
-0.000985797
-2.13519e-05
2.22563e-05
0.000984807
-0.000981616
-2.23058e-05
2.18112e-05
0.000981951
-0.000973252
-2.06168e-05
1.90186e-05
0.000974648
-0.000966138
-1.70402e-05
1.46771e-05
0.000968285
-0.000960417
-1.19274e-05
9.50273e-06
0.000962629
-0.000955411
-7.05127e-06
4.45285e-06
0.000957813
-0.000951233
-1.74284e-06
-9.50315e-07
0.000953749
-0.000946666
3.74424e-06
-7.30435e-06
0.000950073
-0.000943019
1.09645e-05
-1.50192e-05
0.000946945
-0.000939719
1.93792e-05
-2.26022e-05
0.000942846
-0.000936933
2.53011e-05
-2.73404e-05
0.000938908
-0.000934059
2.78255e-05
-2.88647e-05
0.000935078
-0.000934762
4.15809e-05
-4.38784e-05
0.000937084
-0.000930655
4.69357e-05
-4.85832e-05
0.000932386
-0.000926253
5.04363e-05
-5.24676e-05
0.00092843
-0.000920253
5.51536e-05
-5.72477e-05
0.000922562
-0.000914304
5.89271e-05
-5.98626e-05
0.000915518
-0.000908826
6.06276e-05
-6.00436e-05
0.000908582
-0.000905536
5.8736e-05
-5.84226e-05
0.000905611
-0.000894859
5.86632e-05
-5.69392e-05
0.000893549
-0.000887853
5.42625e-05
-5.05175e-05
0.000884521
-0.000883525
4.61789e-05
-3.99554e-05
0.000877693
-0.000880076
3.25919e-05
-2.82314e-05
0.000876071
-0.000874168
2.29847e-05
-1.60794e-05
0.00086758
-0.000881754
9.0439e-06
-1.93351e-06
0.000874935
-0.000876404
-4.9861e-06
1.22195e-05
0.000869446
-0.000876944
-1.8889e-05
2.40602e-05
0.000872039
-0.000887835
-2.76444e-05
3.53539e-05
0.000880378
-0.00088707
-4.15534e-05
4.60658e-05
0.000882781
-0.000893215
-4.95572e-05
5.20923e-05
0.000890849
-0.000901781
-5.32814e-05
5.18585e-05
0.000903302
-0.000914135
-5.03093e-05
5.31404e-05
0.000911316
-0.000914624
-5.47819e-05
5.43951e-05
0.000914942
-0.000920467
-5.30894e-05
5.13641e-05
0.000922051
-0.00092633
-4.93349e-05
4.68544e-05
0.000928618
-0.000931641
-4.4281e-05
4.14217e-05
0.000934273
-0.000936464
-3.85565e-05
3.52633e-05
0.000939518
-0.000941021
-3.22341e-05
2.94774e-05
0.00094354
-0.000944376
-2.64888e-05
2.255e-05
0.000948092
-0.000948754
-1.78934e-05
1.29537e-05
0.000953493
-0.000952984
-7.29694e-06
3.07836e-06
0.000957026
-0.000959664
-6.68863e-07
-5.28224e-07
0.000960711
-0.000961689
2.93767e-06
-5.98735e-06
0.000964611
-0.000966841
8.55384e-06
-1.15018e-05
0.000969683
-0.000972902
1.43814e-05
-1.72594e-05
0.000975694
-0.000980197
1.9927e-05
-2.24117e-05
0.000982617
-0.000989035
2.46275e-05
-2.65446e-05
0.000990912
-0.000999747
2.79794e-05
-2.90053e-05
0.00100076
-0.00100905
2.93608e-05
-2.86527e-05
0.00100838
-0.000992614
2.6482e-05
-2.24385e-05
0.000988685
-0.000856074
1.65508e-05
-9.52718e-06
0.000849268
-0.000449046
3.64873e-06
-1.81619e-07
0.000445875
-0.00028547
9.98541e-07
0.00028487
-2.53813e-07