/*--------------------------------*- C++ -*----------------------------------*\
  =========                 |
  \\      /  F ield         | OpenFOAM: The Open Source CFD Toolbox
   \\    /   O peration     | Website:  https://openfoam.org
    \\  /    A nd           | Version:  7
     \\/     M anipulation  |
\*---------------------------------------------------------------------------*/
FoamFile
{
    version     2.0;
    format      ascii;
    class       volVectorField;
    location    "5";
    object      U;
}
// * * * * * * * * * * * * * * * * * * * * * * * * * * * * * * * * * * * * * //

dimensions      [0 1 -1 0 0 0 0];

internalField   nonuniform List<vector> 
17475
(
(0.999859 0.210314 -1.50927e-20)
(0.993981 0.010968 -2.49205e-20)
(0.999424 0.00518738 0)
(0.999789 0.00316057 0)
(0.999887 0.00220786 0)
(0.999932 0.00161377 0)
(0.999956 0.00120626 0)
(0.99997 0.000908487 0)
(0.999978 0.00068084 -6.00456e-20)
(0.999984 0.00050064 0)
(0.999987 0.000354687 0)
(0.99999 0.00023453 0)
(0.999992 0.000134843 0)
(0.999993 5.20398e-05 0)
(0.999994 -1.60606e-05 0)
(0.999995 -7.15512e-05 0)
(0.999995 -0.000115334 0)
(0.999995 -0.000148406 0)
(0.999995 -0.000171481 0)
(0.999995 -0.000185296 0)
(0.999995 -0.000190046 -2.25987e-19)
(0.999995 -0.000186792 2.82753e-22)
(0.999995 -0.0001763 0)
(0.999995 -0.000158882 -7.10667e-21)
(0.999995 -0.000136927 0)
(0.999995 -0.000108682 -1.42067e-20)
(0.999996 -7.84621e-05 0)
(0.999996 -4.65572e-05 0)
(0.999996 -1.42322e-05 -1.77512e-21)
(0.999996 1.68052e-05 5.66757e-20)
(0.999996 4.52401e-05 5.57281e-20)
(0.999996 6.95735e-05 0)
(0.999996 8.86309e-05 0)
(0.999996 0.000101111 -5.59935e-20)
(0.999996 0.000106046 -5.58905e-20)
(0.999996 0.000102411 0)
(0.999996 8.94532e-05 -4.33148e-22)
(0.999995 6.63278e-05 0)
(0.999995 3.23168e-05 5.50809e-20)
(0.999994 -1.34624e-05 2.75045e-20)
(0.999992 -7.15216e-05 -2.74831e-20)
(0.999991 -0.000143148 0)
(0.999989 -0.000230056 -2.75951e-20)
(0.999986 -0.000334785 0)
(0.999983 -0.000461115 -1.39525e-20)
(0.999979 -0.00061433 0)
(0.999974 -0.000802594 2.87795e-20)
(0.999966 -0.00103816 0)
(0.999955 -0.00134112 0)
(0.999937 -0.00174367 0)
(0.999907 -0.00230555 0)
(0.999857 -0.00312889 -1.7371e-20)
(0.999799 -0.00430751 3.80974e-20)
(0.99911 -0.00187611 4.12894e-20)
(1.02622 -0.0873723 -3.99675e-20)
(0.888638 0.0612604 -1.87583e-20)
(1.08453 0.100322 0)
(1.03111 0.0664408 0)
(1.01551 0.0441524 0)
(1.00896 0.0306568 1.94071e-19)
(1.00565 0.0221434 2.08149e-19)
(1.00379 0.0164814 -2.21929e-19)
(1.00265 0.0125294 0)
(1.00192 0.00966046 0)
(1.00143 0.00750989 0)
(1.00109 0.0058551 0)
(1.00084 0.00455407 0)
(1.00067 0.00351523 0)
(1.00054 0.00267406 0)
(1.00044 0.00199011 0)
(1.00036 0.00143364 0)
(1.00029 0.000987869 0)
(1.00023 0.000638101 0)
(1.00018 0.000376328 0)
(1.00013 0.000196153 0)
(1.00009 9.2533e-05 0)
(1.00005 5.93064e-05 0)
(1.00002 9.07972e-05 -5.05814e-19)
(0.999984 0.000181811 1.26706e-19)
(0.999958 0.000322795 2.54009e-19)
(0.999939 0.000501068 -1.4053e-22)
(0.999927 0.000707097 3.18599e-20)
(0.999922 0.000927739 0)
(0.999926 0.0011506 1.60237e-20)
(0.999937 0.00136169 -1.60715e-20)
(0.999956 0.00154778 2.57914e-19)
(0.999981 0.00169713 -2.62819e-19)
(1.00001 0.0017993 0)
(1.00005 0.00184517 5.21688e-19)
(1.00009 0.00182798 -4.09137e-21)
(1.00013 0.00174158 -5.25302e-19)
(1.00018 0.00158151 0)
(1.00023 0.00134295 -2.64464e-19)
(1.00028 0.00102151 0)
(1.00035 0.000608838 2.65105e-19)
(1.00042 9.67884e-05 -2.65343e-19)
(1.00051 -0.000530051 0)
(1.00062 -0.00129297 0)
(1.00077 -0.00222694 0)
(1.00097 -0.00338198 1.04892e-22)
(1.00124 -0.00483614 -1.3062e-19)
(1.00163 -0.00670432 1.29184e-19)
(1.0022 -0.00916482 6.3768e-20)
(1.00306 -0.0124967 0)
(1.00439 -0.0171571 0)
(1.00656 -0.0239348 0)
(1.01026 -0.0342723 5.60549e-20)
(1.01653 -0.0510365 -5.20064e-20)
(1.03163 -0.0751494 2.21998e-21)
(1.07849 -0.18096 4.95126e-21)
(0.633008 0.0179278 -1.65056e-20)
(1.11545 0.102282 2.46363e-20)
(1.0734 0.080094 9.70654e-20)
(1.04258 0.0603118 0)
(1.02701 0.0460133 0)
(1.01809 0.0354902 2.18777e-19)
(1.01265 0.0276462 0)
(1.00916 0.0216903 0)
(1.00684 0.0170733 0)
(1.00523 0.0134159 -4.7405e-19)
(1.0041 0.0104688 0)
(1.00327 0.008053 0)
(1.00265 0.00605284 0)
(1.00216 0.00438887 0)
(1.00178 0.00300524 0)
(1.00145 0.00186177 4.98093e-19)
(1.00117 0.000933507 0)
(1.00092 0.000203453 0)
(1.00068 -0.000340989 0)
(1.00047 -0.000709398 0)
(1.00027 -0.000909881 -1.01042e-18)
(1.00008 -0.00095218 0)
(0.999907 -0.000849103 -3.80155e-19)
(0.999759 -0.000613825 2.53883e-19)
(0.999638 -0.000268881 0)
(0.999547 0.000165003 6.37287e-20)
(0.999491 0.000660857 0)
(0.999469 0.00118985 -7.97811e-20)
(0.999484 0.00172415 -4.80442e-20)
(0.999537 0.00223336 0)
(0.999625 0.00268833 2.2559e-19)
(0.999743 0.00306138 -8.09269e-21)
(0.999888 0.00332942 4.06082e-21)
(1.00005 0.00347262 2.60474e-19)
(1.00024 0.00347374 -2.6131e-19)
(1.00043 0.00332121 0)
(1.00064 0.0030047 -5.10387e-19)
(1.00086 0.00251592 5.2887e-19)
(1.0011 0.00184553 -5.63328e-19)
(1.00136 0.000983496 0)
(1.00165 -8.3952e-05 -6.62528e-20)
(1.00199 -0.00137909 -2.2319e-22)
(1.00241 -0.00293496 -2.6495e-19)
(1.00295 -0.00480197 -3.57279e-22)
(1.00366 -0.00705623 1.31608e-19)
(1.00462 -0.00980822 0)
(1.00597 -0.0132203 0)
(1.0079 -0.0175312 -6.42997e-20)
(1.01077 -0.023099 6.25745e-20)
(1.01513 -0.0304639 -4.40206e-22)
(1.02206 -0.0404698 -1.7938e-19)
(1.03349 -0.0544279 1.14078e-19)
(1.0542 -0.0745259 -1.10518e-19)
(1.10343 -0.104679 0)
(0.958489 -0.101318 -6.51629e-20)
(0.508343 0.0083935 0)
(1.08881 0.0802456 0)
(1.10026 0.0774307 -5.65723e-20)
(1.0652 0.063302 0)
(1.0444 0.0512971 -2.24012e-19)
(1.03156 0.0415102 0)
(1.02317 0.0335004 0)
(1.01748 0.0269277 0)
(1.01351 0.0215063 0)
(1.01066 0.0169861 0)
(1.00857 0.0131867 0)
(1.007 0.0099664 0)
(1.00577 0.00722669 -4.90738e-19)
(1.00478 0.0048946 0)
(1.00396 0.00292003 0)
(1.00325 0.00126929 0)
(1.00261 -7.85807e-05 0)
(1.00203 -0.00114005 0)
(1.00148 -0.00192349 0)
(1.00096 -0.00243949 5.04134e-19)
(1.00047 -0.00269633 0)
(1 -0.00270565 0)
(0.999584 -0.00247888 2.52114e-19)
(0.999218 -0.00204281 0)
(0.998913 -0.0014268 3.80084e-19)
(0.998684 -0.000666884 -6.35479e-20)
(0.99854 0.000194613 2.55092e-19)
(0.998484 0.00111069 -4.98333e-22)
(0.998519 0.00203615 -1.28124e-19)
(0.998644 0.00291872 -9.61103e-20)
(0.998857 0.00371604 -2.57157e-19)
(0.999147 0.00437979 -8.07677e-21)
(0.999502 0.00487323 0)
(0.99991 0.00516524 -5.19462e-22)
(1.00036 0.00523032 0)
(1.00084 0.00504853 2.45646e-19)
(1.00135 0.00460769 2.63096e-19)
(1.00188 0.0038969 -2.63389e-19)
(1.00244 0.00290849 -5.29918e-19)
(1.00303 0.00163156 -2.15483e-19)
(1.00369 5.52317e-05 6.63081e-20)
(1.00445 -0.00184343 1.32518e-19)
(1.00534 -0.00409795 0)
(1.00645 -0.00675705 0)
(1.00788 -0.00989715 1.315e-19)
(1.00977 -0.0136268 -1.30806e-19)
(1.01233 -0.0180915 -3.24853e-19)
(1.01592 -0.0235076 -6.39483e-20)
(1.02103 -0.0301555 -5.8005e-23)
(1.02852 -0.0384226 6.35846e-20)
(1.03981 -0.0488216 -2.48329e-19)
(1.05749 -0.0620274 1.82415e-19)
(1.08853 -0.0789761 -1.837e-19)
(1.1258 -0.0959787 -1.22047e-19)
(0.814026 -0.0500346 4.27332e-20)
(0.434897 0.00439513 0)
(1.04213 0.0586887 6.67477e-20)
(1.11134 0.068246 -1.22078e-19)
(1.0816 0.0603249 -1.19053e-19)
(1.05872 0.0512465 -1.16657e-19)
(1.04383 0.0430007 -2.34622e-19)
(1.0336 0.0356531 2.34441e-19)
(1.02633 0.0291966 2.36292e-19)
(1.02103 0.0235552 0)
(1.01708 0.0186244 4.78878e-19)
(1.01408 0.0143137 9.63609e-19)
(1.01173 0.0105381 4.85593e-19)
(1.00983 0.00723871 4.88724e-19)
(1.00826 0.00437245 0)
(1.0069 0.00190569 0)
(1.0057 -0.000185935 0)
(1.00459 -0.00190885 9.97623e-19)
(1.00355 -0.00326722 7.1842e-22)
(1.00255 -0.00426359 1.0014e-18)
(1.00159 -0.0048992 5.01434e-19)
(1.00067 -0.00517938 1.24986e-19)
(0.999797 -0.00510565 -2.50227e-19)
(0.998996 -0.00470323 2.50636e-19)
(0.99829 -0.003999 -2.51249e-19)
(0.997705 -0.0030339 0)
(0.997261 -0.00185686 1.25919e-19)
(0.996977 -0.000531121 -2.5357e-19)
(0.996867 0.000878057 0)
(0.996929 0.00229928 6.39434e-20)
(0.997167 0.00365809 3.19253e-20)
(0.997569 0.00489145 2.55859e-19)
(0.998123 0.00592973 -2.40991e-20)
(0.998799 0.0067176 0)
(0.999574 0.00721278 -2.74483e-19)
(1.00042 0.00738248 0)
(1.00133 0.00720522 0)
(1.00227 0.00666627 5.23193e-19)
(1.00326 0.00575744 1.32205e-19)
(1.00427 0.00447308 -2.80091e-19)
(1.00534 0.00281773 -2.47752e-19)
(1.00649 0.000783258 2.98266e-19)
(1.00778 -0.00164351 2.64349e-19)
(1.00927 -0.00448027 3.30179e-19)
(1.01106 -0.00777104 -1.97744e-19)
(1.0133 -0.0115685 -2.62088e-19)
(1.01616 -0.0159478 6.54046e-20)
(1.01994 -0.0210247 0)
(1.02503 -0.0269347 1.29131e-19)
(1.03204 -0.0338485 1.28425e-19)
(1.0419 -0.0419724 6.34882e-20)
(1.05613 -0.0515193 6.39133e-20)
(1.07759 -0.0627952 1.90332e-19)
(1.11105 -0.0753956 1.28038e-19)
(1.10969 -0.0790853 0)
(0.703677 -0.0308785 -2.31734e-19)
(0.389523 0.00227122 0)
(0.994457 0.0420033 0)
(1.11049 0.0571464 2.51165e-19)
(1.09201 0.0542763 2.41992e-19)
(1.06979 0.0479867 0)
(1.05424 0.041393 0)
(1.04316 0.0350079 -2.38819e-19)
(1.03497 0.0289979 0)
(1.02879 0.0234672 0)
(1.02401 0.0184041 0)
(1.02025 0.0138203 4.82585e-19)
(1.0172 0.00967692 4.86158e-19)
(1.01465 0.00595967 0)
(1.01247 0.00266462 0)
(1.01054 -0.00022645 6.39815e-22)
(1.00877 -0.00270456 0)
(1.00709 -0.00477606 -1.97923e-18)
(1.00547 -0.00641094 -1.99121e-18)
(1.00389 -0.00759865 9.92759e-19)
(1.00234 -0.00833334 -4.94863e-19)
(1.00083 -0.00859401 -6.19634e-19)
(0.999398 -0.00839036 1.24237e-19)
(0.998065 -0.00774104 -7.47468e-19)
(0.99688 -0.00668098 1.252e-19)
(0.995886 -0.00525612 -7.05947e-23)
(0.995129 -0.00353398 2.50477e-19)
(0.994642 -0.0015989 -3.14506e-19)
(0.994447 0.000459196 -2.52664e-19)
(0.994551 0.00253772 -3.3164e-22)
(0.994951 0.00452037 -1.27392e-19)
(0.99563 0.00632533 -1.27429e-19)
(0.996558 0.007853 0)
(0.997695 0.00903209 2.3257e-19)
(0.998991 0.00980597 0)
(1.0004 0.0101336 0)
(1.00189 0.00999372 -3.22976e-19)
(1.00343 0.00938042 2.58317e-19)
(1.00501 0.00828905 0)
(1.00662 0.00672698 -1.63383e-20)
(1.00827 0.00471831 0)
(1.01002 0.00226179 0)
(1.01192 -0.00062779 2.96701e-19)
(1.01407 -0.00396357 -3.28963e-20)
(1.01656 -0.00775062 6.15869e-23)
(1.01959 -0.0120207 3.27765e-20)
(1.02335 -0.0168209 3.26354e-19)
(1.02815 -0.0221919 3.25649e-20)
(1.03444 -0.0282078 -2.91323e-19)
(1.04281 -0.0349269 2.57343e-19)
(1.05418 -0.0423785 0)
(1.07007 -0.0505835 -1.28773e-19)
(1.09317 -0.0595074 3.65142e-22)
(1.1223 -0.0673419 1.29171e-19)
(1.07794 -0.061708 2.04275e-19)
(0.62678 -0.019572 0)
(0.360588 0.000988257 -2.62175e-20)
(0.952583 0.0294857 7.24295e-20)
(1.10248 0.0455273 -1.27074e-19)
(1.09742 0.0461549 0)
(1.07779 0.0422567 0)
(1.06268 0.0372569 2.4287e-19)
(1.05152 0.0319172 0)
(1.043 0.0265347 4.81053e-19)
(1.03635 0.0213104 4.81171e-19)
(1.03104 0.0163123 0)
(1.02673 0.0116258 2.42154e-19)
(1.02314 0.00726483 -4.8746e-19)
(1.02002 0.00324902 9.81485e-19)
(1.01728 -0.000402353 0)
(1.01476 -0.00366418 0)
(1.01239 -0.00650774 0)
(1.01008 -0.00890134 7.66956e-21)
(1.00778 -0.0108045 0)
(1.00548 -0.0121862 0)
(1.00319 -0.0129962 -4.90154e-19)
(1.00092 -0.0132162 -1.72532e-22)
(0.998728 -0.0128376 0)
(0.996676 -0.0118646 0)
(0.994834 -0.0103397 -7.41276e-19)
(0.993271 -0.00831065 -4.96042e-19)
(0.992064 -0.00586638 -6.20533e-20)
(0.991286 -0.00312319 0)
(0.990967 -0.000204085 -5.01238e-19)
(0.99113 0.00274632 -1.89696e-19)
(0.991763 0.0055599 -1.34152e-22)
(0.992836 0.00812476 0)
(0.994291 0.0103002 0)
(0.996067 0.0119921 -1.66771e-20)
(0.998076 0.0131307 0)
(1.00024 0.0136729 0)
(1.0025 0.0136065 1.08793e-22)
(1.00481 0.0129319 5.16641e-19)
(1.00715 0.0116581 2.57948e-19)
(1.00946 0.00982639 -2.59406e-19)
(1.01181 0.00747065 -1.63282e-20)
(1.01422 0.00462019 2.62535e-19)
(1.01677 0.00130945 4.55908e-22)
(1.01957 -0.00244254 4.67161e-22)
(1.02273 -0.00661829 -3.28202e-20)
(1.02644 -0.0112255 2.28894e-19)
(1.03091 -0.0162417 0)
(1.03648 -0.0216864 2.93003e-19)
(1.04355 -0.0275369 0)
(1.05268 -0.0337535 1.29926e-19)
(1.06476 -0.0402457 0)
(1.08114 -0.0468546 -1.29369e-19)
(1.10374 -0.0531896 -4.74427e-22)
(1.12383 -0.056471 6.5568e-20)
(1.04213 -0.0452673 2.10197e-19)
(0.574315 -0.011424 -1.01359e-19)
(0.342372 0.000269337 0)
(0.918479 0.0200535 7.35319e-20)
(1.09123 0.0346683 0)
(1.09912 0.0373102 0)
(1.0832 0.0352002 -1.22117e-19)
(1.06927 0.0314987 1.74937e-21)
(1.0586 0.0271026 0)
(1.05024 0.0223609 2.42928e-19)
(1.0435 0.0175055 4.83525e-19)
(1.03798 0.0126814 0)
(1.03335 0.0079801 0)
(1.02936 0.00347571 0)
(1.02581 -0.000784661 0)
(1.02257 -0.00474723 7.29506e-19)
(1.01951 -0.00835001 2.42357e-19)
(1.01652 -0.0115424 0)
(1.01353 -0.0142703 -3.04133e-20)
(1.01046 -0.0164819 -7.28522e-19)
(1.00731 -0.0180761 8.14906e-23)
(1.00411 -0.0189951 2.43652e-19)
(1.00088 -0.0191822 0)
(0.997717 -0.0186032 -2.43821e-19)
(0.994701 -0.0172481 2.96808e-22)
(0.991954 -0.0151408 -2.43242e-19)
(0.989599 -0.0123426 0)
(0.987765 -0.00895294 1.22935e-19)
(0.98656 -0.00513424 1.24067e-19)
(0.986066 -0.00106328 -2.48108e-19)
(0.986307 0.00306367 -1.24783e-19)
(0.987278 0.00698856 2.50915e-19)
(0.988907 0.0105491 0)
(0.991111 0.0135697 3.1369e-20)
(0.993762 0.0159139 2.51922e-19)
(0.996734 0.0175068 -3.15097e-20)
(0.999899 0.018306 8.61874e-22)
(1.00315 0.0183177 -5.11732e-19)
(1.00643 0.0175589 -2.55734e-19)
(1.00966 0.0160734 -2.56884e-19)
(1.0128 0.0139422 2.58223e-19)
(1.01591 0.0112245 0)
(1.01903 0.00798153 -2.77008e-19)
(1.02222 0.00427563 0)
(1.02561 0.000150306 0)
(1.02933 -0.00433265 2.62564e-19)
(1.03359 -0.00915597 0)
(1.03856 -0.0142554 -1.31015e-19)
(1.04458 -0.0196103 -2.6173e-19)
(1.05202 -0.0251401 -6.51768e-20)
(1.06136 -0.0307256 2.60157e-19)
(1.07341 -0.0361995 0)
(1.08929 -0.0412836 -1.30557e-19)
(1.10958 -0.0453309 0)
(1.11851 -0.0452244 6.65816e-20)
(1.00788 -0.0320147 -1.43596e-19)
(0.538738 -0.00636179 0)
(0.331023 -1.45664e-06 0)
(0.892161 0.0135263 7.40215e-20)
(1.07948 0.025676 1.28683e-19)
(1.09855 0.0290723 -1.2387e-19)
(1.08674 0.0280546 1.23431e-19)
(1.07446 0.0252396 2.44806e-19)
(1.06466 0.0215289 0)
(1.05678 0.0172885 0)
(1.05025 0.0127503 0)
(1.04475 0.00807425 0)
(1.04003 0.00337871 -4.84748e-19)
(1.03584 -0.001258 0)
(1.032 -0.00575386 9.66276e-19)
(1.02835 -0.0100402 0)
(1.02478 -0.0140343 0)
(1.02121 -0.0176504 -8.91191e-19)
(1.0175 -0.0208004 -7.19852e-19)
(1.01358 -0.0233879 2.40173e-19)
(1.00947 -0.0252997 2.40321e-19)
(1.00519 -0.026425 -2.40373e-19)
(1.00077 -0.026659 -9.60967e-19)
(0.99632 -0.0259118 -4.80279e-19)
(0.992019 -0.0241385 2.41086e-19)
(0.988023 -0.021335 0)
(0.984552 -0.0175614 1.69161e-21)
(0.981805 -0.0129267 -1.21515e-19)
(0.97998 -0.00767151 1.23018e-19)
(0.979221 -0.0020299 3.05116e-19)
(0.979575 0.00368942 3.40292e-22)
(0.981036 0.00912712 0)
(0.983477 0.0140231 1.22956e-19)
(0.986741 0.0181378 2.49333e-19)
(0.99061 0.0212908 -2.49705e-19)
(0.99489 0.0234044 2.50323e-19)
(0.999364 0.0244558 3.13015e-19)
(1.00389 0.0244928 5.04216e-19)
(1.00834 0.0235627 -1.26996e-19)
(1.01261 0.0217708 -6.37122e-20)
(1.01668 0.0192425 0)
(1.02059 0.0160825 0)
(1.02441 0.0123983 1.61676e-20)
(1.02821 0.00826895 -5.19815e-19)
(1.03211 0.00378261 -2.60833e-19)
(1.03626 -0.000982339 0)
(1.04087 -0.00596467 -2.62942e-19)
(1.04612 -0.011089 -6.56358e-20)
(1.05233 -0.016306 6.54691e-20)
(1.05977 -0.0214935 -1.6297e-20)
(1.06889 -0.0264905 -2.6097e-19)
(1.08038 -0.0310925 -1.04441e-18)
(1.09507 -0.0349793 -5.22664e-19)
(1.11192 -0.0373561 1.31664e-19)
(1.10962 -0.0353458 1.34791e-19)
(0.97863 -0.0227213 2.21216e-19)
(0.51566 -0.003756 -4.29504e-19)
(0.324026 -9.19964e-05 0)
(0.872889 0.00894851 1.47668e-19)
(1.06885 0.0184218 -1.28956e-19)
(1.09695 0.0217747 1.25071e-19)
(1.08919 0.0213073 -2.46473e-19)
(1.07875 0.0190241 -2.43053e-19)
(1.07001 0.0157541 4.84725e-19)
(1.06283 0.0118533 9.43112e-22)
(1.05674 0.00752 2.42187e-19)
(1.05147 0.0029222 4.81823e-19)
(1.04683 -0.00183415 4.79434e-19)
(1.04259 -0.00663278 0)
(1.0386 -0.0114052 -4.76107e-19)
(1.03469 -0.0160619 0)
(1.03072 -0.0205135 9.73277e-19)
(1.02659 -0.0246669 1.18233e-19)
(1.02216 -0.0284022 4.7324e-19)
(1.01735 -0.0315653 -7.1155e-19)
(1.01216 -0.0340007 9.49789e-19)
(1.0066 -0.0355437 0)
(1.00071 -0.036005 -4.73188e-19)
(0.994601 -0.0352206 7.10241e-19)
(0.988547 -0.0330655 -2.37494e-19)
(0.982797 -0.0294781 0)
(0.977701 -0.0244784 2.37947e-19)
(0.973593 -0.0181842 -1.20593e-19)
(0.970835 -0.0109507 -2.39007e-19)
(0.969662 -0.00310922 -2.42324e-19)
(0.970184 0.00486051 2.43747e-19)
(0.972377 0.0123936 0)
(0.976034 0.0191078 0)
(0.980843 0.0246411 -3.0682e-19)
(0.986459 0.0287655 1.56714e-21)
(0.992526 0.0314186 4.32195e-19)
(0.99875 0.0326454 7.42094e-19)
(1.00487 0.0325352 -1.25059e-19)
(1.01072 0.031233 6.28618e-20)
(1.01619 0.0289379 0)
(1.02125 0.0258311 0)
(1.02598 0.0220798 -2.23109e-19)
(1.03046 0.017834 -2.89249e-19)
(1.03479 0.0132057 3.2787e-20)
(1.03907 0.00831625 0)
(1.04351 0.00325267 2.61338e-19)
(1.04828 -0.0019057 -1.97569e-19)
(1.05361 -0.00707599 -5.26036e-19)
(1.05975 -0.0121671 0)
(1.06691 -0.0170488 0)
(1.0755 -0.0215644 -1.6454e-20)
(1.08606 -0.0255029 3.95333e-19)
(1.09909 -0.0285299 -3.97418e-19)
(1.11207 -0.0298379 6.64669e-20)
(1.09991 -0.0269944 -6.13312e-19)
(0.955758 -0.0160904 6.01937e-19)
(0.501353 -0.00222193 -9.3036e-19)
(0.319724 -9.98938e-05 0)
(0.85939 0.00565763 7.37022e-20)
(1.06015 0.0126082 -1.93563e-19)
(1.09519 0.0154494 1.24587e-19)
(1.0911 0.0151477 2.43517e-19)
(1.08256 0.0131422 4.85757e-19)
(1.07498 0.0101134 2.41066e-19)
(1.06862 0.00640415 2.40339e-19)
(1.06311 0.00218323 0)
(1.05824 -0.00240526 0)
(1.05383 -0.00726175 0)
(1.04971 -0.0122851 0)
(1.04571 -0.0174076 -2.34777e-19)
(1.04168 -0.0225293 4.69502e-19)
(1.03742 -0.0275725 0)
(1.03285 -0.0324436 -3.49992e-19)
(1.0278 -0.0369794 2.33507e-19)
(1.02212 -0.0410088 -1.57543e-22)
(1.01577 -0.0443069 -4.67738e-19)
(1.00872 -0.0466348 6.22632e-22)
(1.00105 -0.0477079 -4.64921e-19)
(0.992793 -0.0472052 4.63239e-19)
(0.984314 -0.044841 0)
(0.976045 -0.0404488 2.30965e-19)
(0.968494 -0.0339546 2.29504e-19)
(0.962267 -0.0254606 0)
(0.958015 -0.0154015 2.33942e-19)
(0.95617 -0.00436454 -2.91389e-19)
(0.956959 0.0069131 -5.91013e-20)
(0.960313 0.0174612 3.28175e-19)
(0.965873 0.026711 1.18114e-19)
(0.97304 0.03406 2.10769e-19)
(0.981202 0.0392787 -2.42175e-19)
(0.989787 0.0423821 0)
(0.998343 0.0435224 -4.89878e-19)
(1.00644 0.0429087 6.17749e-20)
(1.01393 0.0408678 -6.22031e-20)
(1.02071 0.0377193 0)
(1.0268 0.0337364 -6.28198e-20)
(1.03229 0.0291549 -3.15765e-19)
(1.03732 0.0241639 0)
(1.04204 0.0189211 2.55694e-19)
(1.04657 0.0135398 2.57545e-19)
(1.05112 0.00811425 0)
(1.0559 0.00272831 -2.62112e-19)
(1.06108 -0.00251416 1.31907e-19)
(1.06688 -0.00751898 0)
(1.07353 -0.0121824 1.3209e-19)
(1.08135 -0.0163447 2.64464e-19)
(1.09076 -0.0198054 2.65569e-19)
(1.10193 -0.0222461 -1.33087e-19)
(1.11107 -0.022914 -4.03733e-19)
(1.09082 -0.0199531 -2.7533e-19)
(0.938457 -0.0111677 5.35203e-19)
(0.492313 -0.00124063 3.33032e-19)
(0.317241 2.11636e-05 0)
(0.850391 0.0032892 0)
(1.05357 0.00802567 0)
(1.09378 0.0101166 0)
(1.09287 0.00971869 0)
(1.08615 0.00779176 0)
(1.07977 0.00487973 0)
(1.0743 0.00125218 0)
(1.06946 -0.00292978 -4.7125e-19)
(1.06512 -0.00756671 0)
(1.06111 -0.0125731 4.67037e-19)
(1.05728 -0.0178782 0)
(1.05345 -0.0234185 0)
(1.04948 -0.0291111 -9.25509e-19)
(1.04517 -0.0349203 0)
(1.04033 -0.0407281 0)
(1.03481 -0.0463791 0)
(1.02839 -0.0516633 -4.61124e-19)
(1.0209 -0.056339 4.59975e-19)
(1.01223 -0.0600421 0)
(1.00243 -0.0623673 2.28484e-19)
(0.991457 -0.0627871 4.50354e-19)
(0.979648 -0.0607352 0)
(0.967625 -0.0557357 2.26211e-19)
(0.956243 -0.0475059 3.87804e-21)
(0.946574 -0.0360401 6.62581e-19)
(0.939757 -0.0218551 2.21186e-19)
(0.936724 -0.00594942 1.77048e-21)
(0.937958 0.010391 1.13873e-19)
(0.943308 0.0254936 -1.42961e-20)
(0.952029 0.0383266 -2.31535e-19)
(0.962942 0.0479709 -2.92396e-20)
(0.974959 0.0542685 -7.37978e-21)
(0.987151 0.0574438 1.43061e-18)
(0.998754 0.0578839 -3.63963e-19)
(1.00926 0.0561082 -6.09576e-20)
(1.0186 0.0527064 -1.22918e-19)
(1.02673 0.0481705 -6.18679e-20)
(1.03377 0.0428732 -6.22921e-20)
(1.03986 0.0371416 7.51639e-19)
(1.04527 0.0311765 7.60159e-19)
(1.05017 0.0251291 1.01728e-18)
(1.05475 0.0191294 2.55954e-19)
(1.05918 0.0132714 0)
(1.06372 0.00762378 -6.49394e-20)
(1.06852 0.00227062 0)
(1.07381 -0.00271112 1.32119e-19)
(1.07977 -0.00722274 1.32836e-19)
(1.08667 -0.0111406 6.66955e-20)
(1.09482 -0.014284 -2.67397e-19)
(1.10405 -0.01636 0)
(1.10964 -0.0167349 0)
(1.08313 -0.0140831 0)
(0.926029 -0.0073974 -7.62332e-20)
(0.487031 -0.000616609 -3.34083e-19)
(0.316287 3.68909e-05 0)
(0.845033 0.0015615 0)
(1.04919 0.00446483 -6.32889e-20)
(1.09305 0.00574031 -1.22601e-19)
(1.09476 0.00509498 0)
(1.08971 0.00314021 0)
(1.08452 0.000256031 -2.3655e-19)
(1.07995 -0.00333891 0)
(1.07588 -0.00753257 -4.64753e-19)
(1.07217 -0.0122476 0)
(1.06872 -0.0174286 9.19555e-19)
(1.06537 -0.0230388 2.28753e-19)
(1.06193 -0.0290469 -9.12498e-19)
(1.05827 -0.0354268 -1.88296e-18)
(1.05418 -0.0421472 4.5172e-19)
(1.04941 -0.0491161 -1.13175e-19)
(1.04373 -0.0562204 -2.26407e-19)
(1.03685 -0.0632829 0)
(1.02846 -0.0700163 0)
(1.01826 -0.0760105 0)
(1.00607 -0.0806535 -2.23792e-19)
(0.991753 -0.0831859 2.17832e-19)
(0.9755 -0.0825999 1.31282e-18)
(0.957839 -0.0777691 -2.1757e-19)
(0.940283 -0.0678699 4.20805e-19)
(0.92463 -0.0524418 8.33138e-19)
(0.913086 -0.0319604 -3.15258e-19)
(0.907818 -0.00812474 2.16332e-19)
(0.909843 0.0163384 2.13737e-19)
(0.918871 0.0386715 2.45033e-20)
(0.933218 0.0566699 1.08081e-19)
(0.950432 0.0690292 2.32592e-19)
(0.968433 0.0759288 4.52239e-19)
(0.985727 0.0781336 9.22989e-19)
(1.00117 0.076646 -2.38243e-19)
(1.01451 0.0725685 2.39187e-19)
(1.02573 0.0668221 -1.81406e-19)
(1.03505 0.0601293 7.33805e-19)
(1.04278 0.0529625 2.46092e-19)
(1.04919 0.0456434 2.48813e-19)
(1.05464 0.0383998 -5.00799e-19)
(1.05938 0.0313964 0)
(1.06366 0.0246979 1.90022e-19)
(1.06772 0.0183543 0)
(1.0718 0.0124186 0)
(1.07604 0.00692099 -1.30377e-19)
(1.08065 0.00192667 -1.97489e-19)
(1.08578 -0.00249317 -1.33061e-19)
(1.09167 -0.00625603 -1.33974e-19)
(1.09849 -0.00920305 -1.34571e-19)
(1.10581 -0.0110877 0)
(1.1083 -0.011434 6.80994e-20)
(1.07707 -0.0093264 1.40526e-19)
(0.917686 -0.00454414 -3.11636e-19)
(0.484463 -0.000204693 1.00566e-18)
(0.316157 5.88297e-06 0)
(0.842269 0.000319619 7.10571e-20)
(1.04665 0.00174122 0)
(1.09308 0.00224838 0)
(1.09692 0.00131309 -2.38332e-19)
(1.09333 -0.000732359 -2.3464e-19)
(1.08926 -0.00360813 1.1606e-19)
(1.08562 -0.00718201 0)
(1.0824 -0.0113702 -1.1424e-19)
(1.07945 -0.0161503 2.27752e-19)
(1.0767 -0.0214926 0)
(1.07403 -0.0273915 2.25107e-19)
(1.07127 -0.0338811 7.01433e-21)
(1.06825 -0.0409749 1.67409e-19)
(1.06473 -0.048674 -1.10718e-19)
(1.06049 -0.0570052 9.97136e-22)
(1.0552 -0.065886 -4.46188e-19)
(1.04847 -0.0752553 0)
(1.03973 -0.0848591 -8.882e-19)
(1.02852 -0.0943282 6.07966e-23)
(1.01416 -0.102979 0)
(0.996089 -0.109705 6.50001e-19)
(0.974162 -0.11296 2.13324e-19)
(0.948332 -0.110534 -8.28896e-19)
(0.920475 -0.100072 4.29339e-21)
(0.893732 -0.0797614 0)
(0.872798 -0.0492917 -2.03163e-19)
(0.862853 -0.011755 9.25574e-20)
(0.866544 0.0271422 -9.80644e-20)
(0.883045 0.0616024 3.88948e-19)
(0.908141 0.0869464 -2.08128e-19)
(0.936375 0.101771 -4.19381e-19)
(0.963798 0.107478 -8.87874e-19)
(0.987905 0.106266 2.30067e-19)
(1.00792 0.100557 2.64459e-19)
(1.02408 0.0923271 -2.38533e-19)
(1.03684 0.0828694 9.61355e-19)
(1.04684 0.0730208 -7.23449e-19)
(1.05463 0.0633002 -2.4307e-19)
(1.06071 0.0540275 0)
(1.06565 0.0453183 -3.74361e-19)
(1.06983 0.0372217 1.26336e-19)
(1.07346 0.0297551 0)
(1.07684 0.0229082 2.55831e-19)
(1.08021 0.0166738 2.57681e-19)
(1.0837 0.0110358 -2.60703e-19)
(1.08746 0.00602882 6.57269e-19)
(1.09167 0.00167011 2.65186e-19)
(1.09647 -0.00197005 -1.33228e-19)
(1.10197 -0.00477526 -1.34479e-19)
(1.10751 -0.00657409 6.79201e-20)
(1.10735 -0.00702248 2.06463e-19)
(1.07258 -0.00556451 -3.54126e-20)
(0.912095 -0.00241209 3.9173e-20)
(0.482932 6.7097e-05 0)
(0.316656 0.000168557 0)
(0.84139 -0.000530524 0)
(1.0456 -0.000242684 1.2341e-19)
(1.09383 -0.000406259 0)
(1.09939 -0.00162262 1.17732e-19)
(1.09708 -0.00373935 -1.16606e-19)
(1.09405 -0.00659221 -2.30754e-19)
(1.09134 -0.0101012 0)
(1.08901 -0.014241 -4.54069e-19)
(1.08694 -0.0190267 0)
(1.08506 -0.0244622 8.96431e-19)
(1.08328 -0.0305822 4.45449e-19)
(1.08149 -0.0374472 1.37847e-20)
(1.07947 -0.0451449 4.38084e-19)
(1.07706 -0.0537974 -4.38912e-19)
(1.07398 -0.0635077 -4.40427e-19)
(1.06984 -0.0743455 2.202e-19)
(1.06419 -0.0863787 6.56565e-19)
(1.0563 -0.0996269 2.19345e-19)
(1.04533 -0.113905 -4.37262e-19)
(1.03003 -0.128686 0)
(1.009 -0.14289 -1.0616e-20)
(0.980744 -0.154489 -4.27327e-19)
(0.944044 -0.159902 0)
(0.899197 -0.153481 0)
(0.850804 -0.128844 -3.38655e-19)
(0.809338 -0.0823684 -5.7746e-21)
(0.788518 -0.0187779 6.57196e-21)
(0.796147 0.0485094 3.18866e-19)
(0.829558 0.104561 -3.32976e-19)
(0.876918 0.139733 -3.66515e-19)
(0.924886 0.153851 -8.03111e-19)
(0.966176 0.152952 -7.73417e-19)
(0.998466 0.143252 -4.5053e-19)
(1.02288 0.129457 0)
(1.04089 0.114351 0)
(1.05384 0.0994773 -5.96784e-19)
(1.06315 0.0855183 1.5796e-21)
(1.0699 0.0727798 2.42165e-19)
(1.07486 0.0612991 2.47228e-19)
(1.07865 0.0510194 4.98686e-19)
(1.08171 0.0418251 -3.75837e-19)
(1.08423 0.0336554 0)
(1.08659 0.0263775 -1.27545e-19)
(1.08897 0.0199255 1.28831e-19)
(1.09148 0.0142327 0)
(1.09425 0.0092688 0)
(1.09744 0.00502406 -6.24786e-22)
(1.10111 0.00153231 0)
(1.10532 -0.00114388 0)
(1.10928 -0.00290049 -5.91257e-22)
(1.10695 -0.00351003 0)
(1.06972 -0.0026876 2.12613e-19)
(0.908865 -0.000844792 0)
(0.482191 0.000294784 2.78813e-19)
(0.318065 6.80554e-05 0)
(0.842177 -0.00111819 -1.7294e-20)
(1.04605 -0.00165561 -1.52358e-20)
(1.09534 -0.00237291 0)
(1.1022 -0.00377812 -1.46229e-20)
(1.10098 -0.00587875 0)
(1.0989 -0.0086128 0)
(1.09712 -0.0119688 0)
(1.09571 -0.0159556 0)
(1.0946 -0.0206182 0)
(1.09373 -0.0259998 0)
(1.09304 -0.0321472 0)
(1.09245 -0.0391609 0)
(1.09185 -0.0472425 -6.58321e-19)
(1.09111 -0.0566085 2.17579e-19)
(1.08993 -0.0674647 4.38374e-19)
(1.08795 -0.0800583 4.38571e-19)
(1.08473 -0.0947101 4.31457e-22)
(1.07949 -0.111859 2.17046e-19)
(1.07115 -0.131807 2.69258e-21)
(1.05792 -0.154795 -8.91889e-19)
(1.03726 -0.180579 4.28079e-19)
(1.00545 -0.207717 0)
(0.957111 -0.232456 -4.05834e-19)
(0.887274 -0.244777 1.42831e-18)
(0.796049 -0.225411 -6.60268e-19)
(0.70534 -0.155179 -2.74147e-19)
(0.657533 -0.035184 -5.66346e-19)
(0.674007 0.0973254 0)
(0.750156 0.194298 -5.99313e-19)
(0.846588 0.236601 1.58083e-18)
(0.928483 0.236391 6.40154e-19)
(0.986932 0.215173 2.21587e-19)
(1.02604 0.187783 1.38993e-18)
(1.05148 0.16051 -1.57313e-21)
(1.0679 0.135682 -1.69551e-18)
(1.07834 0.114014 1.17404e-19)
(1.08497 0.0954222 -7.32518e-19)
(1.08915 0.0795633 -2.44407e-19)
(1.09177 0.0660158 -4.96506e-19)
(1.09353 0.0544192 0)
(1.09478 0.0444279 -1.25636e-19)
(1.09575 0.0357925 -2.57931e-19)
(1.09674 0.0282919 -2.59007e-19)
(1.09787 0.021805 1.29773e-19)
(1.09924 0.0161962 -4.58779e-19)
(1.10093 0.0113957 1.34944e-19)
(1.10303 0.00735381 5.32323e-19)
(1.10558 0.00407655 6.74735e-20)
(1.10859 0.00157615 1.35642e-19)
(1.11115 -9.54754e-05 1.3717e-19)
(1.1071 -0.000829105 -6.90784e-20)
(1.06818 -0.00053924 -7.09592e-20)
(0.907321 0.000279439 -1.32179e-23)
(0.482384 0.00045386 -1.3908e-19)
(0.319242 1.54576e-05 -3.81889e-19)
(0.843776 -0.00156587 5.49194e-19)
(1.04738 -0.00277422 5.12972e-22)
(1.09718 -0.00385479 -2.35125e-19)
(1.10495 -0.00526773 2.33533e-19)
(1.1046 -0.00717687 2.31379e-19)
(1.10341 -0.00963925 0)
(1.10254 -0.0126966 1.93305e-22)
(1.10207 -0.0163885 1.13428e-19)
(1.10199 -0.0207686 -5.63849e-20)
(1.10224 -0.0258886 5.61376e-20)
(1.10285 -0.0317568 5.57713e-20)
(1.10379 -0.038551 -2.7693e-20)
(1.10496 -0.0466244 -1.11267e-19)
(1.10632 -0.0561672 -1.64133e-19)
(1.10773 -0.0674882 -3.3023e-19)
(1.10895 -0.0810768 -1.34011e-18)
(1.10973 -0.097525 -2.22034e-19)
(1.10947 -0.117717 0)
(1.10721 -0.142769 0)
(1.10139 -0.174181 4.63601e-19)
(1.08897 -0.213889 3.53589e-20)
(1.06441 -0.263902 1.47595e-18)
(1.01599 -0.324426 -4.51018e-19)
(0.91821 -0.391008 4.35333e-19)
(0.747722 -0.434809 0)
(0.550748 -0.339106 -1.48795e-18)
(0.429593 -0.0784897 -1.05808e-20)
(0.467309 0.223708 6.3272e-19)
(0.654849 0.406852 -9.81862e-19)
(0.842635 0.412981 0)
(0.980948 0.351483 2.00333e-18)
(1.04789 0.28723 -1.03067e-18)
(1.082 0.230936 -1.02043e-18)
(1.09921 0.185684 -5.14286e-19)
(1.1076 0.150066 -5.09961e-19)
(1.11119 0.121946 -7.54394e-19)
(1.11223 0.0994894 0)
(1.11188 0.081414 1.88536e-19)
(1.11091 0.066628 -1.51733e-18)
(1.10979 0.0543458 0)
(1.10866 0.0440939 -8.07552e-22)
(1.10767 0.0354526 6.51521e-20)
(1.10699 0.0281234 1.9576e-19)
(1.10667 0.0218816 6.58848e-20)
(1.10676 0.0165934 -1.33126e-19)
(1.10728 0.0121522 6.7073e-20)
(1.10826 0.00848585 6.71984e-20)
(1.10972 0.00556174 -3.67873e-22)
(1.11162 0.00337217 -5.10613e-20)
(1.11301 0.00190527 -5.17365e-20)
(1.10768 0.0011706 1.04271e-19)
(1.06781 0.00105962 1.42101e-19)
(0.907369 0.00105173 7.78714e-20)
(0.483359 0.000480229 1.38287e-19)
(0.314145 0.00103951 6.06191e-18)
(0.843595 -0.00216133 0)
(1.04822 -0.00427061 1.93482e-18)
(1.0984 -0.00534382 -1.88268e-18)
(1.10677 -0.00629859 -1.86673e-18)
(1.10717 -0.00767537 0)
(1.10681 -0.00962939 -1.86035e-18)
(1.10682 -0.0121977 0)
(1.10732 -0.0154086 0)
(1.10829 -0.0192841 -9.17471e-19)
(1.10975 -0.0238239 0)
(1.11171 -0.0291004 8.96455e-19)
(1.11417 -0.0353536 2.81526e-20)
(1.1172 -0.0428718 -1.13257e-19)
(1.12091 -0.0518156 -1.69785e-19)
(1.12531 -0.0625355 -1.70285e-19)
(1.13045 -0.0756459 -1.1416e-19)
(1.13636 -0.0919063 -2.42772e-21)
(1.14304 -0.11243 2.33214e-19)
(1.15044 -0.138955 -2.47746e-19)
(1.15827 -0.174141 1.27173e-18)
(1.16542 -0.222721 -2.75832e-19)
(1.16988 -0.293246 0)
(1.16852 -0.405067 0)
(1.09969 -0.573967 1.88536e-18)
(0.804126 -0.6562 0)
(0.228165 -0.348664 -8.49422e-17)
(0.384912 0.40758 1.19135e-18)
(0.93404 0.661149 6.78334e-19)
(1.16413 0.479638 1.7825e-18)
(1.17203 0.334087 -1.30118e-18)
(1.17203 0.247483 -2.53769e-18)
(1.16562 0.189004 -1.62641e-18)
(1.15752 0.147539 3.34904e-19)