/*--------------------------------*- C++ -*----------------------------------*\
  =========                 |
  \\      /  F ield         | OpenFOAM: The Open Source CFD Toolbox
   \\    /   O peration     | Website:  https://openfoam.org
    \\  /    A nd           | Version:  7
     \\/     M anipulation  |
\*---------------------------------------------------------------------------*/
FoamFile
{
    version     2.0;
    format      ascii;
    class       volScalarField;
    location    "50";
    object      k;
}
// * * * * * * * * * * * * * * * * * * * * * * * * * * * * * * * * * * * * * //

dimensions      [0 2 -2 0 0 0 0];

internalField   nonuniform List<scalar> 
12842
(
0.00567982
0.0051012
0.00473678
0.00448568
0.00429826
0.00418515
0.00408399
0.00403462
0.00398433
0.0039617
0.00393375
0.00393577
0.0039505
0.00397871
0.00401893
0.00404925
0.00409548
0.00412907
0.00417782
0.00420852
0.00426513
0.00430175
0.00436461
0.00565793
0.005031
0.00469428
0.00446908
0.00429214
0.0041801
0.00407991
0.00402594
0.00397879
0.00395736
0.00393136
0.00393382
0.0039497
0.00397919
0.00402012
0.00405018
0.00409777
0.00413128
0.00418392
0.00422172
0.00428775
0.004332
0.00439785
0.0056229
0.00497501
0.0046174
0.00439701
0.00424786
0.00414479
0.00405399
0.00400797
0.00396448
0.00394455
0.00392486
0.00392946
0.00394955
0.00398479
0.00402869
0.00407367
0.00411861
0.00415967
0.00422004
0.0042515
0.00431719
0.00438825
0.0044853
0.00555801
0.00492602
0.00457852
0.00436692
0.00422751
0.00412823
0.00404279
0.00399433
0.00395337
0.00393866
0.00392144
0.00392676
0.00394792
0.00398868
0.00403709
0.00409132
0.00415426
0.00419041
0.00426786
0.00432825
0.00440673
0.00449181
0.00464138
0.0055114
0.00483494
0.00450904
0.00429898
0.00417852
0.00409024
0.00401751
0.00397533
0.00394025
0.00392872
0.00391502
0.0039243
0.0039497
0.00399997
0.00406667
0.00413268
0.00421981
0.00427639
0.0043605
0.00443566
0.00454531
0.00466705
0.00484395
0.00544442
0.00478998
0.00445189
0.00426679
0.00415614
0.00406852
0.00400412
0.00396114
0.00393012
0.0039223
0.003912
0.00392356
0.00395348
0.00401127
0.00409892
0.00417948
0.0042691
0.0043388
0.00444562
0.00455651
0.00468685
0.0048471
0.00505993
0.00538747
0.00471614
0.00440127
0.00420943
0.00411295
0.00403805
0.00398633
0.00394658
0.00392098
0.00391534
0.003908
0.00392299
0.00396319
0.00403786
0.00416669
0.0042833
0.00438383
0.00447423
0.00459041
0.00472648
0.00488124
0.00506666
0.00529512
0.00532731
0.0046673
0.00435188
0.0041867
0.00408543
0.00401728
0.0039767
0.00393539
0.00391454
0.00390988
0.00390422
0.00392342
0.00398178
0.0040735
0.00423163
0.0043827
0.00448215
0.00458375
0.0047234
0.00488739
0.00506141
0.00527867
0.00551537
0.00526679
0.00461218
0.00430616
0.00414381
0.00405705
0.0039921
0.0039601
0.00392599
0.0039085
0.00390541
0.00390318
0.00393206
0.00402642
0.00415354
0.00435721
0.00453073
0.00465443
0.00478139
0.00493342
0.0051221
0.00530614
0.00554184
0.00577827
0.00520202
0.004561
0.00426657
0.00412659
0.00403412
0.00398038
0.00395351
0.00391853
0.00390605
0.00390283
0.00390949
0.00395868
0.00408896
0.00424867
0.00448341
0.00467303
0.00479948
0.00494666
0.00512125
0.00532579
0.00551445
0.00575917
0.00598456
0.00513609
0.00450605
0.00423039
0.00409311
0.00400757
0.00396138
0.00394021
0.00391236
0.00390168
0.00389664
0.00392454
0.00401255
0.00417763
0.00437694
0.00463215
0.00483211
0.00498595
0.00515017
0.00533367
0.00554213
0.0057284
0.00597344
0.0061851
0.0050706
0.00446169
0.0041942
0.00407816
0.00399228
0.00395248
0.00393381
0.0039057
0.00389857
0.00389505
0.00395411
0.00407315
0.00428358
0.00451614
0.00478772
0.00499966
0.00515889
0.00534396
0.00554164
0.00575251
0.00593495
0.00616993
0.00636341
0.00500771
0.00441252
0.00416456
0.00404921
0.00396723
0.00393744
0.00392162
0.00389772
0.00389149
0.00389817
0.00399393
0.00416214
0.00441818
0.00468487
0.0049682
0.00518649
0.00536886
0.0055553
0.00576279
0.00596698
0.00613303
0.00636319
0.0065362
0.00494572
0.00437304
0.00413797
0.00403558
0.00395535
0.00393062
0.00391595
0.00389365
0.00388944
0.00392561
0.00405706
0.0042627
0.00456704
0.00486268
0.00514879
0.00536989
0.00555635
0.00576003
0.00595989
0.00615763
0.00632648
0.00653168
0.00668569
0.0048873
0.00433087
0.00411013
0.00400901
0.00393448
0.0039184
0.00390531
0.00388531
0.00388781
0.00396129
0.00413233
0.00438249
0.00473032
0.00505545
0.00534725
0.00556897
0.00576544
0.00594948
0.00616887
0.00635099
0.00648762
0.00668981
0.00682403
0.00483053
0.00429893
0.00408744
0.00399601
0.003925
0.00391255
0.00390092
0.00388247
0.00390625
0.00402493
0.00423664
0.00452487
0.00491199
0.00525724
0.0055387
0.00575787
0.00595426
0.00614958
0.00633408
0.00651146
0.00666265
0.00683214
0.00695502
0.00477975
0.00426392
0.00406832
0.00397067
0.00390739
0.00390185
0.00388756
0.00387411
0.00392629
0.00408421
0.00434296
0.0046634
0.00508758
0.00545539
0.00573955
0.00594805
0.00613935
0.00630467
0.00651389
0.00667221
0.00678795
0.00695528
0.00705812
0.00473507
0.00423402
0.00404419
0.0039577
0.00389937
0.0038968
0.00389983
0.0038988
0.00399049
0.00417971
0.00447922
0.00483277
0.0052832
0.00565672
0.00591994
0.00612793
0.00631838
0.00648295
0.00664252
0.00679914
0.00693128
0.00706989
0.0071723
0.00469558
0.00420928
0.00402501
0.00393554
0.00388404
0.00388522
0.00390084
0.00391978
0.00404109
0.00426448
0.00460756
0.00498562
0.00546386
0.00584881
0.00611194
0.00629606
0.00646509
0.00660761
0.00679029
0.00692362
0.00704407
0.00718227
0.00727407
0.00466028
0.00417998
0.00400914
0.00392017
0.00387638
0.00388296
0.0039492
0.00400489
0.0041462
0.00438887
0.00475726
0.00515997
0.00565009
0.00603063
0.00626984
0.00645782
0.00663384
0.00675606
0.00689764
0.00704216
0.00715146
0.00728018
0.00737195
0.00462854
0.00415774
0.00398663
0.00390244
0.00386164
0.00387228
0.00399573
0.00406936
0.00422218
0.00449553
0.00489575
0.00532056
0.00582702
0.00620499
0.00644372
0.00660249
0.00674309
0.00686857
0.00701864
0.00712468
0.00725068
0.00736301
0.00745885
0.00460368
0.00413079
0.003967
0.00389246
0.0038664
0.00389919
0.0040935
0.00419454
0.00435841
0.00464121
0.00504729
0.00548978
0.00599728
0.00636809
0.00658208
0.00674453
0.00689618
0.00697231
0.00710746
0.00723997
0.00733036
0.00746272
0.00754976
0.0045743
0.00410995
0.00395575
0.00387009
0.00386992
0.00394453
0.00416896
0.00428385
0.00445778
0.00475938
0.00518078
0.00564449
0.00615408
0.0065125
0.00672983
0.00686232
0.00698545
0.00709636
0.00721365
0.00731517
0.00742403
0.0075335
0.00761328
0.00456144
0.00408756
0.0039357
0.00386761
0.00389977
0.00403572
0.00429248
0.00443446
0.00462657
0.00492841
0.00534271
0.00581678
0.0063168
0.00666369
0.00686198
0.00700375
0.00711674
0.00716369
0.00729828
0.00739617
0.00749722
0.00760048
0.00770928
0.00454168
0.00406836
0.00392477
0.00388378
0.00396689
0.00413899
0.00439641
0.00455418
0.00475915
0.00506107
0.00547176
0.005964
0.00645201
0.00678485
0.00697996
0.00709357
0.00721495
0.0072924
0.00740686
0.007503
0.00757275
0.00773992
0.00784055
0.00453134
0.0040548
0.00393186
0.00394678
0.00406636
0.00424393
0.00450235
0.00467965
0.00488981
0.00518914
0.00559378
0.00609452
0.0065716
0.00690158
0.0071064
0.0072385
0.00732575
0.00739717
0.00748072
0.00756486
0.00771453
0.00784382
0.00799108
0.00451315
0.00403821
0.00393555
0.00402814
0.00416768
0.00436511
0.0046135
0.0048018
0.00501574
0.00530852
0.00570653
0.00622403
0.00668382
0.00700205
0.00719798
0.00733096
0.00747084
0.00750215
0.00767195
0.00771525
0.00781681
0.00794749
0.00817244
0.0045002
0.00402174
0.00397107
0.00412771
0.00427531
0.00447941
0.00472487
0.00492111
0.00513394
0.00542002
0.00581275
0.00633528
0.00678189
0.00710832
0.00732996
0.00746375
0.00758119
0.00769382
0.00777002
0.00789197
0.00804027
0.00850766
0.00918551
0.00448478
0.00401872
0.00401514
0.00422362
0.00438386
0.00460137
0.00483428
0.00503164
0.00524289
0.00552081
0.00590933
0.00644648
0.00687667
0.00719866
0.00743084
0.00761576
0.00777012
0.00791012
0.00810708
0.00827861
0.00878881
0.00959261
0.0104866
0.00446894
0.00403304
0.00408758
0.00433121
0.00449013
0.00471393
0.00494153
0.0051357
0.00534072
0.00561095
0.00599754
0.0065371
0.00695799
0.00729689
0.00754148
0.00772821
0.00799157
0.00808199
0.00844359
0.00890332
0.00973428
0.0106541
0.0121272
0.00445412
0.00407967
0.00416256
0.00443468
0.00459794
0.00482813
0.00504063
0.00522786
0.00542808
0.00569212
0.00607771
0.00662889
0.00703743
0.00739164
0.00769129
0.00793967
0.00819863
0.00855421
0.00914511
0.00982223
0.0107646
0.0125787
0.0158009
0.0044463
0.00413537
0.00424564
0.00453537
0.0046989
0.00492766
0.00513492
0.00531251
0.0055041
0.00576139
0.00614854
0.00669809
0.00710635
0.00747113
0.00777868
0.00811446
0.00852917
0.00905098
0.00989955
0.0108488
0.0127706
0.0168773
0.020817
0.00442726
0.00420959
0.00433738
0.00463738
0.00479391
0.00502812
0.00521987
0.00538545
0.00557069
0.00582467
0.0062136
0.00677226
0.00717478
0.00758257
0.00795793
0.00831497
0.00902341
0.00951652
0.0112227
0.0125392
0.0168322
0.0217751
0.024462
0.00442469
0.00428898
0.00442358
0.00473083
0.00488868
0.00510921
0.0052963
0.00545097
0.00562766
0.00587698
0.00627014
0.00682482
0.00723733
0.00765204
0.00806678
0.00867658
0.0094892
0.0107373
0.0127091
0.0160484
0.0214638
0.0252741
0.0267814
0.00442563
0.00437414
0.00451294
0.0048191
0.00496878
0.00519303
0.00536438
0.00550666
0.00567737
0.00592532
0.00632348
0.00688425
0.00729838
0.00776318
0.00826883
0.00897019
0.0101201
0.0121438
0.015982
0.020163
0.0252826
0.0273286
0.028043
0.00445762
0.00447184
0.00460129
0.0049074
0.00504935
0.00525801
0.00542685
0.0055559
0.00571975
0.00596464
0.00636887
0.00692909
0.00736629
0.00786791
0.00843764
0.00943781
0.0117055
0.0144058
0.0199097
0.0237537
0.0278108
0.028679
0.0290227
0.00450409
0.00455637
0.0046853
0.00498512
0.00512475
0.00532163
0.0054782
0.00559802
0.00575721
0.00600169
0.0064142
0.00697581
0.00741306
0.00794071
0.00865693
0.0104281
0.0132284
0.0177328
0.0233866
0.0264215
0.02918
0.0293305
0.0297157
0.00455673
0.00465733
0.00476845
0.00505689
0.00518723
0.00537899
0.00552345
0.00563561
0.00578927
0.00603137
0.00645275
0.00702105
0.00749495
0.00810843
0.00912779
0.0114511
0.0156209
0.0219895
0.0261491
0.0280573
0.0298867
0.029892
0.0305804
0.0046261
0.0047449
0.00485369
0.00513233
0.00525437
0.00542279
0.00556968
0.00566708
0.00581837
0.00606029
0.00649165
0.00705955
0.00754033
0.00820778
0.00944743
0.0132052
0.0193306
0.0256089
0.0280655
0.0289976
0.0302049
0.0301147
0.0309908
0.0046865
0.00483033
0.00492769
0.00519147
0.00531024
0.00547022
0.00559309
0.00569676
0.00584333
0.00608309
0.00652829
0.00710591
0.00761901
0.00842867
0.0103924
0.0157707
0.0236874
0.0287367
0.029676
0.0296775
0.030549
0.0305422
0.0316764
0.00475658
0.00491751
0.00501139
0.00525163
0.00536155
0.00550412
0.0056333
0.00572093
0.00586678
0.00610731
0.00656306
0.00714332
0.00768159
0.00859902
0.0112333
0.0189879
0.0276201
0.0310196
0.0307482
0.0300381
0.03092
0.031243
0.0321775
0.00481943
0.00499289
0.00507554
0.00530264
0.00540925
0.00554185
0.0056462
0.0057441
0.00588658
0.00612443
0.00659865
0.00719188
0.00776115
0.00898555
0.0131094
0.0228071
0.0305159
0.0328016
0.0314454
0.0306129
0.0314648
0.0316949
0.032589
0.00489026
0.00505925
0.00514981
0.00535183
0.00544915
0.00554657
0.00566275
0.00576324
0.00590598
0.00614683
0.00663499
0.00722983
0.00785937
0.00939635
0.014843
0.0259918
0.032603
0.0341702
0.0321546
0.0311528
0.0326104
0.0325364
0.0327998
0.00493416
0.00512401
0.00520816
0.00538721
0.00548474
0.00555243
0.00567621
0.00578111
0.00592191
0.00616095
0.00666752
0.00728518
0.00794524
0.00989309
0.016861
0.0290574
0.034315
0.0350385
0.032807
0.0317518
0.0330696
0.0330748
0.032935
0.00498801
0.00517656
0.0052584
0.00541406
0.00551093
0.00556225
0.00568476
0.00579523
0.00593789
0.0061807
0.00670877
0.00732542
0.00810101
0.0107209
0.0192615
0.0312484
0.0351622
0.0356302
0.0333679
0.0324948
0.0341016
0.0344325
0.0331887
0.00502124
0.0052182
0.00531085
0.00544371
0.0055333
0.00557825
0.00569499
0.00581048
0.00595089
0.00619591
0.00673955
0.00739066
0.00821793
0.0114159
0.0209294
0.0325484
0.0359059
0.0362096
0.0346732
0.0333985
0.0347819
0.0352492
0.0340569
0.00506718
0.00524752
0.00534084
0.00545779
0.00555049
0.00558277
0.00570525
0.00581909
0.0059638
0.00621325
0.00678475
0.00743356
0.0083955
0.0121779
0.023166
0.0342239
0.0368098
0.0369548
0.0356785
0.034392
0.0352083
0.0356061
0.0344067
0.00510055
0.00528003
0.00537639
0.00548808
0.00556531
0.00559316
0.00571535
0.00583107
0.00597446
0.00622914
0.00681536
0.00750663
0.00856803
0.0132963
0.0252268
0.0354446
0.0373709
0.0377563
0.0372423
0.0353328
0.0355077
0.0386267
0.0376739
0.00514196
0.00530136
0.00539524
0.00550273
0.00558204
0.00560693
0.00572584
0.00583943
0.00598525
0.00624828
0.00686024
0.00755227
0.00876126
0.014236
0.0265882
0.0360509
0.0379416
0.03857
0.0387708
0.0361866
0.0387541
0.0366048
0.0351388
0.00517763
0.00533552
0.00540873
0.00551621
0.00559713
0.00562546
0.00573927
0.00584751
0.00599455
0.00626342
0.00689687
0.00762824
0.00899677
0.0150543
0.0280466
0.0375634
0.0400501
0.0409932
0.0398293
0.038424
0.0376252
0.0332437
0.0314181
0.0052201
0.00535837
0.00542437
0.00553128
0.00561729
0.00564188
0.00574965
0.0058534
0.00600368
0.00628089
0.0069301
0.00766536
0.00914527
0.0159914
0.0296461
0.0398148
0.0418767
0.0429795
0.0417238
0.0387498
0.034719
0.0302288
0.0278824
0.00525638
0.00539014
0.00544725
0.00555165
0.00563574
0.00566139
0.00576106
0.00586126
0.00601164
0.0062976
0.00696163
0.00771647
0.00929873
0.0168501
0.0303793
0.0402346
0.0424513
0.0438908
0.0417377
0.0371475
0.0305942
0.0269034
0.0246298
0.00529761
0.00541507
0.00547127
0.00557322
0.00565464
0.00567954
0.00577207
0.00586893
0.00601901
0.00631489
0.00699252
0.00775604
0.00948424
0.0172652
0.030607
0.0403988
0.0424307
0.0438114
0.0395885
0.0327812
0.0263517
0.0236381
0.0214562
0.00533628
0.00544526
0.00550254
0.00559689
0.00567379
0.00570039
0.00578357
0.00587748
0.00602652
0.00632881
0.00701552
0.00778706
0.00961382
0.017303
0.0300875
0.0394684
0.0402354
0.0413537
0.0344468
0.0278982
0.0225386
0.0205318
0.0188578
0.00537843
0.00547217
0.00553038
0.00562197
0.00569121
0.00571999
0.00579524
0.00588588
0.0060314
0.00634725
0.00703898
0.00783508
0.00961995
0.0166151
0.0275474
0.0350035
0.0341412
0.0351981
0.0284098
0.0229132
0.0188763
0.0175263
0.0162354
0.00541798
0.00550054
0.00556351
0.00564773
0.00571051
0.00574117
0.00580735
0.00589532
0.00603981
0.00636282
0.00706911
0.00786828
0.00948881
0.0152738
0.0237868
0.0283387
0.0274842
0.0287703
0.0228789
0.0187496
0.0159415
0.0151937
0.0141245
0.00545773
0.00552723
0.005591
0.00567132
0.00572718
0.00575926
0.0058177
0.00590274
0.00604332
0.00637769
0.00708246
0.00787327
0.00920334
0.0139046
0.0207018
0.0229043
0.022158
0.0236197
0.0188858
0.0157341
0.0137478
0.0131801
0.0126389
0.00549225
0.00555259
0.00561969
0.00569511
0.00574414
0.00577703
0.00582843
0.00590951
0.00604817
0.00638708
0.00710019
0.00786704
0.00891888
0.0126243
0.0178061
0.018288
0.0178887
0.0193488
0.0157496
0.0133779
0.0120201
0.0116193
0.0113755
0.00552708
0.00557838
0.00564594
0.00571632
0.00576062
0.00579461
0.00583873
0.00591625
0.00605172
0.00639985
0.00711284
0.00784251
0.00863645
0.0114772
0.0155948
0.0149024
0.0147817
0.0159656
0.0133903
0.0116364
0.0107306
0.0106548
0.0104613
0.00556124
0.00560547
0.00567373
0.00574031
0.00577703
0.00581081
0.00585014
0.00592242
0.0060536
0.00640839
0.00711706
0.00779846
0.00839648
0.010537
0.0138829
0.0125241
0.01264
0.0135803
0.0116732
0.0104858
0.00994002
0.00983274
0.00973528
0.00559182
0.00563163
0.00569927
0.00575992
0.00579373
0.0058281
0.00586119
0.0059292
0.00605619
0.00641752
0.00711581
0.0077519
0.00818315
0.00978329
0.0126925
0.0110738
0.0113945
0.0119596
0.0106109
0.00959651
0.00923583
0.0093744
0.00922357
0.00562354
0.0056582
0.00572492
0.00578197
0.00580897
0.00584318
0.00587335
0.00593588
0.00605712
0.00642537
0.00709315
0.00768949
0.00800368
0.00919202
0.0118433
0.0101427
0.0104919
0.0107604
0.00972207
0.0092813
0.00920509
0.00907991
0.00915132
0.00565195
0.00568643
0.00575078
0.00580097
0.00582623
0.00585871
0.00588506
0.00594297
0.0060584
0.00642755
0.00706706
0.00762394
0.00786119
0.00874157
0.0112472
0.00970579
0.0102025
0.0101622
0.00940182
0.00912616
0.00900017
0.00908018
0.0090986
0.00568006
0.00571087
0.00577287
0.00582046
0.00584111
0.0058737
0.00589753
0.00595098
0.00605824
0.00642785
0.00701235
0.0075603
0.00772026
0.00840385
0.010881
0.00952463
0.0100523
0.00991002
0.0092552
0.00902639
0.00901311
0.00901295
0.00904774
0.00570455
0.00573713
0.00579694
0.00583801
0.00585712
0.00588789
0.00591015
0.00595827
0.0060584
0.00641725
0.00696934
0.00747617
0.00762114
0.00812896
0.0107016
0.00943515
0.0100347
0.00977314
0.00922028
0.00895557
0.00899274
0.0090155
0.00892303
0.00573286
0.00576404
0.00581957
0.00585612
0.00587311
0.00590086
0.00592144
0.00596691
0.00605822
0.00640659
0.00691945
0.00740402
0.00751517
0.00792994
0.0105587
0.00939003
0.0100209
0.00969393
0.00915021
0.00888557
0.00898418
0.00896075
0.00898908
0.00575272
0.00578314
0.00583628
0.00587178
0.00588741
0.00591525
0.00593449
0.0059752
0.00605795
0.00640066
0.00687528
0.00733536
0.00743177
0.0077459
0.0105453
0.00937553
0.00992751
0.00963271
0.00918163
0.00894901
0.00896274
0.00900427
0.00898502
0.00577489
0.00580723
0.0058568
0.00588681
0.00590223
0.00592739
0.00594531
0.00598263
0.00605889
0.00639247
0.00684049
0.0072481
0.00733755
0.00772268
0.0104808
0.00941379
0.00998669
0.00962984
0.00919306
0.00896218
0.00897374
0.00900251
0.00894087
0.0057965
0.00582766
0.00587262
0.00590081
0.00591375
0.00593719
0.00595514
0.00599158
0.00606068
0.00639165
0.00681364
0.00719145
0.00730034
0.00765227
0.0102792
0.00943906
0.0099693
0.00964573
0.00911163
0.00896909
0.00895593
0.00898622
0.00901605
0.00581337
0.00584151
0.0058841
0.00591471
0.00592741
0.00595001
0.00596708
0.00599894
0.0060628
0.00638756
0.00679613
0.00713876
0.00728197
0.00762097
0.0100538
0.00944702
0.00997858
0.00959857
0.00916858
0.00890669
0.00895968
0.0089912
0.00901158
0.00581363
0.00584193
0.00588368
0.0059158
0.00593615
0.0059581
0.00597212
0.00600456
0.00606544
0.00637778
0.00677421
0.00710366
0.00726187
0.00760442
0.00990201
0.00942084
0.00998536
0.00961047
0.00917218
0.00899483
0.00886565
0.00891275
0.00897306
0.00582193
0.00584379
0.00588465
0.00591768
0.00593712
0.00596182
0.00597487
0.00601343
0.00606786
0.00636668
0.00676656
0.00708091
0.0072479
0.00763492
0.00971483
0.00942877
0.00999531
0.00961363
0.00914252
0.00899055
0.0089659
0.00891217
0.00900515
0.0058182
0.00584813
0.0058872
0.00592243
0.00593766
0.00596174
0.00597752
0.00601689
0.00607073
0.00635589
0.00676322
0.00706652
0.00725185
0.00763858
0.00965246
0.00945362
0.0100038
0.00973887
0.00912206
0.00893642
0.00892046
0.00895708
0.00912495
0.00581802
0.00585491
0.00589412
0.00592577
0.00594093
0.00596177
0.00597952
0.00601701
0.00607321
0.00634466
0.00675865
0.00706071
0.00725196
0.00760145
0.00965682
0.00948119
0.00998499
0.00975855
0.00919392
0.00896407
0.00894565
0.00905113
0.00929589
0.00581737
0.0058629
0.00589221
0.00592463
0.00593821
0.0059613
0.0059798
0.00601723
0.00607566
0.00633393
0.00676024
0.0070613
0.00723993
0.0076246
0.0096274
0.00950955
0.0100885
0.00973339
0.00927107
0.0090927
0.00903142
0.00915557
0.00952339
0.00581909
0.00585937
0.00589226
0.00592373
0.00593907
0.00596128
0.00597958
0.00601774
0.00607866
0.00632332
0.00675968
0.00705902
0.00726069
0.00762861
0.00964933
0.00956296
0.0101118
0.00970135
0.00941259
0.00922317
0.00914747
0.00933355
0.00987507
0.00582497
0.00586215
0.00589621
0.00592303
0.00593862
0.0059631
0.00597918
0.00601791
0.00607864
0.00631582
0.00675786
0.00706261
0.0072627
0.00762991
0.00964904
0.00963142
0.0100798
0.00977276
0.00955248
0.00939154
0.00931541
0.00955897
0.0103025
0.00581997
0.00585922
0.00589572
0.00592206
0.00594018
0.00596482
0.00597985
0.00601801
0.00607883
0.00630426
0.00675833
0.00706063
0.00726365
0.00762388
0.00963506
0.00979547
0.0101125
0.00982508
0.00972475
0.00957563
0.0095257
0.00983152
0.0107279
0.00582151
0.00586199
0.00589977
0.0059213
0.00593642
0.00596142
0.00597962
0.0060184
0.00608063
0.00630135
0.00675131
0.00706947
0.00726959
0.00766142
0.00965003
0.009989
0.0101931
0.00997737
0.00993845
0.00977061
0.00977391
0.0102022
0.0112759
0.00581461
0.0058565
0.00589493
0.00592031
0.0059358
0.00596106
0.00597969
0.00601892
0.00607971
0.00629831
0.00675528
0.00706131
0.00727526
0.00766978
0.009751
0.0103694
0.0103686
0.0101428
0.0101589
0.0100335
0.0100863
0.0105915
0.0118259
0.00581369
0.00585617
0.00589505
0.00592081
0.00593588
0.00596194
0.0059798
0.00601782
0.00607923
0.00629632
0.00675627
0.00706891
0.00727951
0.00767482
0.00984652
0.0107549
0.0107386
0.0104532
0.0104119
0.0102624
0.010347
0.0110003
0.0125359
0.00581397
0.00586151
0.0058968
0.0059198
0.00593727
0.00595781
0.0059806
0.00601595
0.00607912
0.00629329
0.00675676
0.00706344
0.00730403
0.00771824
0.0101263
0.0112064
0.0110889
0.0106836
0.010684
0.0106139
0.0107999
0.0115738
0.0131236
0.00581324
0.00585532
0.00589728
0.00592518
0.00593548
0.00595715
0.00597656
0.00601462
0.00607849
0.00629403
0.0067553
0.0070639
0.00731132
0.00772738
0.0103785
0.0117862
0.0115759
0.010999
0.0109965
0.0109255
0.0111424
0.0120746
0.0139977
0.00581404
0.00585427
0.00589054
0.00592073
0.00593416
0.00595855
0.00597595
0.00601305
0.00607803
0.00629437
0.00676274
0.00707319
0.00732644
0.00772979
0.0108253
0.0122996
0.0120894
0.0114184
0.0112646
0.0112754
0.0116476
0.0127911
0.0146113
0.00580481
0.00585545
0.00589542
0.00592393
0.00593263
0.00595762
0.00597701
0.00601197
0.00607769
0.00629419
0.00677374
0.00708094
0.0073538
0.00778519
0.011364
0.0128449
0.0126095
0.0118026
0.0116566
0.0116365
0.0120665
0.0135922
0.0160076
0.00580287
0.00584753
0.0058896
0.00592426
0.00592611
0.00595727
0.00597621
0.00600884
0.00607762
0.00629293
0.00679253
0.00709476
0.0073746
0.00789696
0.011743
0.0134219
0.013038
0.0121988
0.0119022
0.0121099
0.0128247
0.0143611
0.0167362
0.00580223
0.00585462
0.00589324
0.00592213
0.00592468
0.00595425
0.00597458
0.0060082
0.00607516
0.00629449
0.00680735
0.00711174
0.00742204
0.00804493
0.0124389
0.0138915
0.0136763
0.0127131
0.012411
0.0124098
0.0130564
0.0153513
0.018108
0.00579819
0.00584735
0.00589331
0.00591968
0.00592176
0.00595276
0.00597228
0.00600644
0.00607478
0.00629429
0.00682427
0.00712824
0.00746828
0.00833617
0.013018
0.0144735
0.0140636
0.0130476
0.0126647
0.0131085
0.0142653
0.0168354
0.0187011
0.00579751
0.00585141
0.0058914
0.00591571
0.00592143
0.00595167
0.00597085
0.00600525
0.00607528
0.00629283
0.00683678
0.0071559
0.00748112
0.00874579
0.0137127
0.0150488
0.0145848
0.0135642
0.0131945
0.0134732
0.0144502
0.0178886
0.0204498
0.00579132
0.00585128
0.00588897
0.00591
0.00591941
0.00594482
0.00596544
0.00600509
0.00607531
0.00629278
0.00684978
0.00717522
0.00748259
0.00910007
0.0145542
0.0154438
0.0150097
0.0140802
0.0135156
0.0141227
0.015848
0.0200308
0.0236666
0.00579358
0.00584649
0.00588581
0.00590728
0.00591876
0.00594304
0.00596443
0.00599944
0.00607461
0.00629389
0.00685844
0.00719676
0.00752233
0.00984493
0.0153008
0.0160202
0.0154604
0.0145897
0.0142088
0.0151406
0.0166285
0.0224701
0.0267247
0.00578122
0.00584205
0.00588332
0.00590532
0.00592278
0.00594486
0.00595743
0.00599794
0.00607237
0.00629788
0.00686714
0.00722104
0.00757199
0.0107078
0.0162535
0.0166453
0.0157639
0.0150372
0.0145838
0.015667
0.0181639
0.024947
0.0295793
0.00578053
0.0058368
0.00587986
0.00589561
0.00592197
0.00594345
0.00595629
0.00599489
0.00607026
0.00630385
0.00688032
0.00724605
0.00764384
0.0114897
0.0168819
0.0170412
0.016053
0.0152886
0.0156774
0.0180245
0.0208991
0.0291303
0.0356427
0.00578492
0.00582814
0.00587528
0.00589378
0.00591827
0.00594138
0.00595921
0.00599393
0.00606853
0.00631032
0.00689077
0.00727105
0.00780015
0.0128031
0.0177309
0.0176234
0.0163622
0.0159014
0.0164742
0.0185876
0.0240431
0.0330016
0.0414574
0.00578845
0.00582203
0.00587051
0.00589717
0.00591259
0.00593379
0.00595814
0.00599145
0.00606364
0.00631625
0.00690878
0.00729263
0.00786551
0.0133951
0.0183081
0.0180209
0.0166939
0.0164739
0.0176288
0.0204771
0.0280293
0.0408932
0.0454177
0.00578388
0.00581497
0.00586461
0.00589524
0.0059088
0.00593119
0.00595313
0.00599036
0.00606469
0.00632431
0.00693636
0.0073356
0.00805137
0.0146336
0.0189836
0.0183612
0.0168649
0.0172933
0.0196052
0.0256141
0.0300645
0.0407561
0.0474174
0.00577393
0.00580207
0.00585621
0.0058889
0.00589967
0.00592193
0.00594951
0.00599247
0.00605879
0.00632344
0.00693637
0.00736802
0.00816424
0.0153574
0.0195289
0.0191086
0.0176975
0.0188248
0.0216433
0.0270663
0.0323218
0.0417901
0.049643
0.00575808
0.00578461
0.00584254
0.0058818
0.00588535
0.00592231
0.00594166
0.00599064
0.00605397
0.00631666
0.00693405
0.00741598
0.00821954
0.015897
0.0200914
0.0196947
0.0183907
0.019788
0.0229675
0.0271505
0.0343057
0.0435328
0.0521744
0.00573628
0.00577827
0.00582374
0.00586633
0.00588013
0.00591771
0.00592965
0.0059841
0.0060437
0.00630884
0.00693386
0.00745052
0.00833016
0.0163308
0.0205934
0.0203891
0.0195209
0.0212078
0.0238912
0.027122
0.0332351
0.0425632
0.0514505
0.00572884
0.00577666
0.00581704
0.00585452
0.00588106
0.00590843
0.00592875
0.00597683
0.0060373
0.00629752
0.00691681
0.00748943
0.00842477
0.0166162
0.0210025
0.0209898
0.0203358
0.0219971
0.0251449
0.0282514
0.0338281
0.0432151
0.0511213
0.00573011
0.00577156
0.00581888
0.00584113
0.00587291
0.0058975
0.00592237
0.00596773
0.00603477
0.00628004
0.00687971
0.00751813
0.00861921
0.0170292
0.0217037
0.0216984
0.0216814
0.0235238
0.0264037
0.0297218
0.0326197
0.0417965
0.0484414
0.0057174
0.00574904
0.00581075
0.00583003
0.00586023
0.00588849
0.00591097
0.00595806
0.00602628
0.00625926
0.00683032
0.00756135
0.00881992
0.017338
0.0226419
0.022268
0.0224235
0.0238916
0.0279192
0.0309762
0.0334371
0.0385466
0.0459552
0.0056956
0.00571463
0.00579597
0.00581958
0.00584192
0.00587341
0.00589326
0.00594478
0.00601368
0.00623499
0.00677548
0.0076547
0.00903744
0.0175754
0.0232915
0.0233014
0.0235817
0.0256236
0.027765
0.0313637
0.0338693
0.0384145
0.0426973
0.0056596
0.00570326
0.00577798
0.00579756
0.0058263
0.00585615
0.00587579
0.00593048
0.00600004
0.00621085
0.00672162
0.00773009
0.00946617
0.0185442
0.0239389
0.024332
0.0252882
0.0269606
0.0288419
0.0317696
0.0352284
0.0384379
0.0427029
0.00561092
0.0057069
0.00575591
0.00577719
0.00580278
0.0058349
0.00586167
0.00591158
0.00598215
0.00618424
0.00666908
0.00786944
0.00979916
0.0181368
0.0260642
0.0259721
0.0267439
0.0284909
0.0317229
0.0334016
0.0357746
0.0402541
0.043267
0.00559277
0.00569257
0.00572985
0.00575024
0.00577722
0.005809
0.00584422
0.00589125
0.00596346
0.00615914
0.00662166
0.00791433
0.0103872
0.0198226
0.027251
0.0283535
0.0286381
0.030917
0.0328955
0.0350052
0.0391996
0.0450248
0.046607
0.00559173
0.00566526
0.00569808
0.0057137
0.00574658
0.00578014
0.00581925
0.00586464
0.00593899
0.00613035
0.00657735
0.00804452
0.0110628
0.0204239
0.0300091
0.0295696
0.0313324
0.032886
0.0353408
0.0390748
0.0449253
0.0475753
0.0477163
0.00556644
0.00563176
0.00566299
0.00568511
0.00571147
0.00575217
0.00579176
0.0058366
0.0059136
0.006103
0.00654021
0.00820872
0.0118654
0.0229363
0.0321498
0.0339385
0.0359386
0.0375475
0.0404028
0.043706
0.0468839
0.0547526
0.0542772
0.00552618
0.00558803
0.00562117
0.00565398
0.00567597
0.00571718
0.00575531
0.00580015
0.00588011
0.00606911
0.00649992
0.0084414
0.0127641
0.0269627
0.0378762
0.0394269
0.0389471
0.0420027
0.0454882
0.0489847
0.0538733
0.0569229
0.0573191
0.00547895
0.00554068
0.0055774
0.00561702
0.00564079
0.00567983
0.00571667
0.00576218
0.00584548
0.00603591
0.006461
0.00868748
0.013817
0.0297644
0.0404955
0.0426902
0.0438534
0.0505337
0.054678
0.0555698
0.0573451
0.0604798
0.0633687
0.00541974
0.00548221
0.0055222
0.00556608
0.0055939
0.00562997
0.0056662
0.00571243
0.00579918
0.00599168
0.00641309
0.00892583
0.0152723
0.0341439
0.0505575
0.0499642
0.0490897
0.0531615
0.0606174
0.0589238
0.0707371
0.0683926
0.0657806
0.00535608
0.00542127
0.00546339
0.00551067
0.00554228
0.00557682
0.00561359
0.00566106
0.00575125
0.0059465
0.00635891
0.00940944
0.016738
0.0354535
0.0544418
0.0592917
0.0559559
0.0603504
0.0642485
0.0742662
0.0726979
0.0783767
0.0853762
0.00527941
0.00534651
0.00538956
0.00543941
0.00547374
0.00550738
0.00554503
0.00559306
0.00568587
0.00588335
0.00628262
0.00970125
0.0191063
0.0465766
0.0566157
0.0677281
0.0665515
0.0795335
0.0845593
0.0865313
0.0958748
0.0890021
0.0901906
0.00519968
0.00526997
0.00531264
0.00536567
0.00540179
0.00543588
0.00547489
0.00552381
0.0056183
0.00581692
0.00619786
0.0102263
0.0256138
0.0529407
0.06323
0.0733115
0.0824746
0.0853566
0.0968994
0.0958602
0.115379
0.112218
0.0976157
0.00510392
0.00517489
0.00521619
0.00527222
0.00530906
0.00534363
0.00538333
0.00543161
0.0055254
0.00572214
0.0060766
0.0115305
0.0263577
0.0561497
0.0672068
0.0805505
0.0818434
0.0963169
0.120628
0.127715
0.109349
0.101143
0.088051
0.00500628
0.00507937
0.00511913
0.00517821
0.0052159
0.00525154
0.00529189
0.00533986
0.0054316
0.00562356
0.00594836
0.0111725
0.0374591
0.0575337
0.0676963
0.0901334
0.0972586
0.111112
0.120145
0.128922
0.115922
0.0936157
0.0834712
0.00488726
0.0049595
0.00499829
0.00505839
0.00509588
0.00513203
0.00517168
0.00521736
0.00530393
0.00548833
0.00577524
0.0105091
0.0460037
0.0638157
0.0791784
0.0859781
0.110975
0.12996
0.114234
0.119433
0.103164
0.0900864
0.0790144
0.00476916
0.0048427
0.00488222
0.00494172
0.00497975
0.00501656
0.00505545
0.00509973
0.00518098
0.0053565
0.00560224
0.0103861
0.0557387
0.0669956
0.0737061
0.0864447
0.112039
0.117319
0.104109
0.103992
0.0974422
0.0889974
0.0774416
0.00462249
0.00469458
0.00473494
0.00479078
0.00482761
0.0048637
0.00490015
0.00494131
0.00501424
0.00517934
0.0053731
0.0112114
0.0543005
0.066186
0.0756351
0.077321
0.10434
0.106735
0.101783
0.097166
0.0951885
0.0906926
0.0707699
0.00448368
0.00455659
0.00459991
0.00465087
0.00468746
0.004723
0.00475724
0.00479711
0.00486298
0.00501899
0.00516673
0.0111374
0.0711124
0.069897
0.0736904
0.0822913
0.113928
0.109996
0.0935698
0.0991544
0.0986713