/*--------------------------------*- C++ -*----------------------------------*\
  =========                 |
  \\      /  F ield         | OpenFOAM: The Open Source CFD Toolbox
   \\    /   O peration     | Website:  https://openfoam.org
    \\  /    A nd           | Version:  7
     \\/     M anipulation  |
\*---------------------------------------------------------------------------*/
FoamFile
{
    version     2.0;
    format      ascii;
    class       volScalarField;
    location    "50";
    object      nut;
}
// * * * * * * * * * * * * * * * * * * * * * * * * * * * * * * * * * * * * * //

dimensions      [0 2 -1 0 0 0 0];

internalField   nonuniform List<scalar> 
12842
(
0.00180886
0.00179468
0.00178699
0.00177659
0.00176175
0.00176465
0.00175468
0.0017625
0.00175639
0.00176313
0.0017593
0.00176779
0.00177282
0.00139053
0.000669203
0.000374929
0.000242201
0.000173187
0.000132426
0.000105482
8.77742e-05
7.54398e-05
6.6237e-05
0.00181087
0.0017884
0.00178822
0.00178127
0.00176504
0.00176488
0.00175414
0.00176047
0.00175709
0.00176338
0.00175917
0.00176801
0.00177365
0.00136361
0.000658947
0.000369563
0.000239632
0.00017182
0.000131886
0.0001055
8.8129e-05
7.62829e-05
6.67488e-05
0.00181055
0.00178493
0.00178313
0.00178252
0.00177091
0.00176249
0.00175093
0.00175809
0.00175442
0.00176225
0.00176003
0.00176763
0.00177456
0.0013212
0.000642351
0.00036322
0.000236897
0.000170822
0.000131778
0.000105546
8.83216e-05
7.73557e-05
6.78535e-05
0.00180855
0.00178665
0.00177969
0.00177928
0.00177602
0.00176848
0.00175337
0.00175526
0.00175235
0.00176144
0.00175996
0.00176833
0.0017752
0.00126771
0.000622014
0.00035507
0.00023397
0.000169298
0.000131547
0.000106437
8.94786e-05
7.90333e-05
6.98133e-05
0.00180746
0.00178189
0.00177872
0.00177331
0.00177588
0.00176574
0.00175669
0.00175533
0.00175262
0.00176149
0.00176001
0.00176838
0.00177626
0.00121534
0.000602419
0.000348009
0.000232358
0.000169946
0.000132702
0.000108031
9.1541e-05
8.1848e-05
7.23871e-05
0.00180532
0.00178307
0.00177336
0.00176979
0.00177607
0.00176615
0.00175738
0.00175311
0.00175225
0.00176084
0.00175993
0.0017694
0.00177886
0.00117501
0.000588226
0.000343863
0.000231571
0.000170665
0.000134266
0.000110379
9.38994e-05
8.48685e-05
7.52754e-05
0.0018031
0.00178249
0.00177454
0.00176661
0.00177153
0.00176513
0.00176141
0.00175498
0.00175407
0.00176174
0.00176095
0.0017701
0.001784
0.00114791
0.000580945
0.000344351
0.000234323
0.000174304
0.000137557
0.000113744
9.71269e-05
8.83251e-05
7.82988e-05
0.00180149
0.00178015
0.00177056
0.00176591
0.00176902
0.00176243
0.00176252
0.00175368
0.00175568
0.00176124
0.00176063
0.00177133
0.00179272
0.00113435
0.000583196
0.000352298
0.000241906
0.000180878
0.000143148
0.000118547
0.000101023
9.22372e-05
8.16079e-05
0.00179943
0.00178064
0.00176981
0.00176536
0.00176654
0.00176157
0.00176326
0.00175507
0.00175747
0.00176194
0.0017624
0.00177686
0.00181246
0.00111903
0.000585543
0.000360863
0.000251718
0.000190154
0.000150884
0.000125341
0.000106496
9.72907e-05
8.55926e-05
0.00179744
0.00177946
0.00176672
0.00176545
0.00176277
0.00176121
0.00176404
0.00175509
0.00175956
0.00176207
0.0017663
0.00179031
0.00184059
0.00110372
0.000583112
0.000361936
0.000253919
0.00019324
0.000154427
0.000128947
0.000109622
0.000100358
8.78607e-05
0.00179569
0.00177696
0.00176847
0.00176585
0.00175936
0.00176025
0.00176281
0.00175646
0.00175979
0.0017608
0.00177556
0.00181491
0.0018806
0.00109149
0.000586452
0.000371341
0.000263332
0.00020137
0.000161059
0.000134511
0.000114024
0.000104231
9.08828e-05
0.0017939
0.00177668
0.00176458
0.00176636
0.0017578
0.0017598
0.00176337
0.00175584
0.00176053
0.00176142
0.00179059
0.00184314
0.0019261
0.00108594
0.000594745
0.000380819
0.000272236
0.000209718
0.00016823
0.000140356
0.000118567
0.000108027
9.38773e-05
0.00179164
0.00177409
0.00176726
0.00176666
0.00175522
0.0017593
0.00176154
0.0017559
0.00175891
0.00176464
0.00181051
0.00188332
0.0019827
0.00109311
0.000613594
0.000399033
0.000285974
0.000220013
0.000176192
0.000146675
0.000123223
0.000111913
9.68909e-05
0.00179076
0.0017726
0.00176532
0.0017668
0.00175412
0.00175913
0.0017615
0.00175586
0.00175995
0.0017781
0.00184032
0.00192677
0.00203359
0.0011164
0.000632365
0.000413563
0.000297586
0.000230872
0.000184429
0.000152878
0.000128165
0.000115588
9.97551e-05
0.00178771
0.00177056
0.00176735
0.00176597
0.00175247
0.00175894
0.00176079
0.00175566
0.00176183
0.00179698
0.00187477
0.00197355
0.00207461
0.00115186
0.000665746
0.000438666
0.000314986
0.000242023
0.000193583
0.000160026
0.000132994
0.000119637
0.000102967
0.00178696
0.0017697
0.00176579
0.00176526
0.00175211
0.001759
0.00176093
0.00175626
0.00177254
0.00182663
0.00191634
0.00201263
0.00210915
0.00118841
0.000689212
0.000456612
0.00032962
0.00025653
0.000203285
0.000167259
0.000139325
0.00012413
0.000106658
0.00178348
0.00176688
0.00176899
0.0017631
0.00175074
0.00175946
0.0017592
0.00175638
0.00178539
0.0018543
0.00195285
0.0020419
0.00212778
0.00124687
0.00073351
0.000487396
0.000351175
0.000269869
0.000215361
0.00017706
0.000145961
0.000129476
0.00011132
0.00178284
0.00176627
0.00176754
0.00176153
0.00175025
0.00176004
0.00176683
0.00176911
0.00181221
0.0018898
0.00198468
0.0020664
0.00214836
0.00128975
0.000760602
0.000509696
0.000371911
0.000290699
0.000229537
0.000187267
0.000155852
0.000136168
0.000118007
0.00177963
0.0017642
0.00176699
0.00175961
0.00174935
0.00176062
0.00177277
0.00178221
0.00183459
0.0019147
0.00201222
0.00208048
0.00215043
0.00136455
0.000812326
0.000546229
0.000398672
0.0003104
0.000247237
0.000201639
0.000167213
0.000143653
0.000125189
0.00177888
0.00176235
0.00176958
0.00175691
0.00174894
0.00176237
0.00179567
0.00181274
0.00186351
0.00193505
0.00202954
0.00208989
0.00215823
0.00141012
0.00084365
0.000575952
0.000432097
0.000340837
0.000271592
0.000219574
0.000182199
0.000154275
0.000135545
0.00177644
0.00176026
0.00176509
0.0017556
0.00174851
0.00176398
0.00181824
0.00183609
0.00187609
0.00195038
0.00204401
0.00209303
0.00214967
0.0014937
0.000901246
0.000619314
0.000465475
0.000377258
0.000304161
0.000244606
0.000204655
0.000170801
0.000149799
0.00177709
0.00175746
0.00176514
0.00175739
0.00175366
0.00177491
0.00185278
0.00186489
0.00188726
0.00195959
0.00204667
0.00209156
0.00214943
0.00154076
0.000935449
0.000658105
0.000521951
0.000427456
0.000350595
0.000286533
0.000234337
0.000192263
0.000168163
0.00177426
0.00175521
0.00176481
0.00175161
0.00176108
0.00179759
0.00186708
0.00187219
0.00189402
0.001965
0.00204769
0.00208747
0.00213269
0.00160144
0.000985926
0.000704832
0.000564109
0.000498285
0.000430544
0.000342957
0.000275534
0.000226347
0.000201466
0.00177658
0.0017528
0.00176261
0.00175635
0.00177894
0.00183178
0.00188602
0.00188526
0.00190211
0.00196749
0.00204227
0.00208032
0.00212808
0.00161126
0.000998763
0.000733864
0.000634124
0.000599207
0.000557048
0.000453371
0.000350704
0.000286309
0.000247712
0.0017756
0.00174779
0.00176023
0.00176789
0.00180766
0.00185774
0.00189303
0.00189103
0.00190364
0.00196541
0.00203359
0.00207257
0.00210809
0.00168894
0.00105188
0.000782399
0.000693146
0.000730179
0.000816236
0.000683429
0.000483372
0.000375154
0.000312046
0.00177709
0.00174919
0.00176864
0.00179803
0.00184275
0.00186966
0.00189406
0.00189588
0.0019033
0.00196096
0.00202367
0.00206356
0.00210281
0.00169605
0.00106556
0.000812953
0.000748265
0.000879654
0.00118236
0.0010367
0.000688524
0.000506653
0.000422252
0.00177715
0.00174574
0.00177259
0.00183475
0.0018633
0.00188401
0.00189419
0.00189482
0.00190175
0.00195369
0.00201101
0.00205509
0.0020817
0.00174851
0.00109693
0.000831097
0.000801557
0.00100329
0.00111452
0.000983028
0.00084899
0.000690302
0.000581669
0.0017783
0.0017462
0.00179263
0.00187003
0.00188026
0.00188804
0.00189236
0.00189433
0.00189873
0.00194575
0.00199982
0.00204603
0.00207787
0.00175169
0.00111477
0.00087279
0.000812462
0.000998338
0.00105491
0.000887855
0.000711731
0.000576498
0.000512816
0.00177983
0.00174955
0.00181625
0.00189688
0.00188774
0.0018948
0.00189038
0.00189043
0.00189512
0.00193656
0.00198735
0.00203862
0.00205726
0.00179994
0.00113464
0.000869909
0.000829709
0.000894215
0.000968296
0.0007879
0.000628399
0.000534533
0.000480021
0.00178062
0.00176307
0.00184849
0.00191641
0.00188994
0.00189232
0.00188775
0.00188747
0.00189038
0.00192727
0.00197722
0.00203042
0.00205498
0.00179485
0.00114971
0.000896624
0.000805203
0.000855376
0.000857987
0.000722536
0.000595443
0.000501483
0.000444724
0.00178199
0.00178646
0.00187239
0.0019302
0.00188825
0.00189293
0.00188519
0.00188301
0.00188556
0.00191838
0.00196705
0.00202483
0.00203523
0.00184315
0.00118143
0.000906672
0.00082716
0.000785497
0.000756138
0.000695016
0.000552879
0.00046078
0.000397163
0.00178763
0.00181659
0.00189065
0.00193612
0.00188301
0.00188718
0.00188189
0.00187927
0.00188018
0.00190936
0.00195916
0.00201773
0.00203375
0.00183494
0.00118724
0.000933359
0.000830435
0.000768396
0.000709442
0.000652838
0.000499832
0.000395055
0.000356752
0.00178578
0.00184936
0.00190288
0.00193749
0.00187442
0.00188417
0.00187981
0.00187547
0.00187517
0.00190197
0.00195198
0.00201381
0.00201456
0.00189012
0.00124767
0.000975201
0.000838136
0.000746626
0.000755036
0.000586509
0.00042026
0.000355227
0.000324264
0.0017936
0.0018766
0.00190804
0.00193549
0.00186912
0.00187764
0.00187648
0.00187208
0.00187019
0.0018944
0.00194668
0.00200879
0.00201261
0.00187128
0.00127055
0.00101135
0.000883558
0.00081176
0.000758663
0.000502149
0.000375349
0.000327336
0.000305022
0.00179895
0.00189542
0.001909
0.00192817
0.00185957
0.00187433
0.00187444
0.00186908
0.0018659
0.00188892
0.00194256
0.00200537
0.00199403
0.00183643
0.00132995
0.0010713
0.00095291
0.000910459
0.000686595
0.000436424
0.0003509
0.000311278
0.000295493
0.00181923
0.00191451
0.00190791
0.00192374
0.00185355
0.00186788
0.00187285
0.00186614
0.00186192
0.00188317
0.00193946
0.00200317
0.00198864
0.00180266
0.00141729
0.00119922
0.00108127
0.00085322
0.000582184
0.000398855
0.00033943
0.000309474
0.000294949
0.00183923
0.00191922
0.00190283
0.00191525
0.00184967
0.00186473
0.00186972
0.00186358
0.00185882
0.00187961
0.00193816
0.00200008
0.00197354
0.00177563
0.00147964
0.00124363
0.00104886
0.000737178
0.000508299
0.000378923
0.000337452
0.000304542
0.000288384
0.00185693
0.00192766
0.00189857
0.0019069
0.00184253
0.00186058
0.0018679
0.00186083
0.00185593
0.00187563
0.00193698
0.00199903
0.00195705
0.00172357
0.00143563
0.0012236
0.000943812
0.000651443
0.000464099
0.000372095
0.000328667
0.00030539
0.000296867
0.00187265
0.00192523
0.00189529
0.00190271
0.00184164
0.00185594
0.00186628
0.00185783
0.00185398
0.00187357
0.00193769
0.00199828
0.00194885
0.00169943
0.00140293
0.00115584
0.000829164
0.000589194
0.000440546
0.000362749
0.00032488
0.000310715
0.000305672
0.001879
0.00192128
0.00188895
0.00189363
0.0018376
0.00185285
0.00186055
0.0018553
0.00185198
0.00187122
0.00193846
0.00199554
0.00192325
0.0016546
0.0013435
0.00105322
0.000750579
0.000556978
0.000437014
0.000357813
0.000336187
0.000323988
0.000322785
0.0018848
0.00191662
0.00188766
0.00188812
0.00183475
0.00184791
0.0018598
0.0018515
0.00185086
0.00187043
0.00194084
0.00199772
0.00191152
0.00158743
0.00121035
0.000948609
0.000703273
0.000543594
0.000432831
0.000369241
0.000356293
0.000348537
0.000343896
0.00188386
0.00190883
0.00187979
0.00188021
0.00183382
0.00184447
0.00185228
0.00184863
0.0018495
0.00186913
0.00194255
0.00199382
0.00187552
0.00152194
0.00114958
0.000889562
0.000669429
0.000547205
0.000445418
0.000394946
0.000386468
0.000376867
0.000370216
0.00188338
0.00189818
0.00187763
0.00187487
0.00182999
0.00183232
0.00184582
0.00184462
0.001849
0.00186959
0.00194745
0.00199402
0.0018534
0.00141938
0.0010769
0.000836014
0.000658896
0.000557213
0.000471835
0.000428438
0.000429947
0.000412934
0.000398172
0.00187411
0.0018892
0.00186906
0.00186383
0.00183011
0.00182278
0.00184003
0.00184205
0.00184802
0.00186921
0.00194879
0.00199199
0.00180125
0.00135712
0.00100569
0.000814248
0.000664093
0.000576351
0.000508623
0.000469648
0.000472983
0.0004504
0.000430613
0.00186533
0.00187805
0.00186096
0.00185367
0.00182766
0.00181826
0.00183393
0.00183898
0.00184782
0.00187013
0.00195593
0.00198668
0.00176234
0.00128229
0.000982624
0.00079731
0.000666512
0.000603555
0.000551268
0.000518824
0.00052842
0.000499548
0.000467149
0.00185374
0.00186558
0.00185339
0.00184601
0.00182293
0.00181705
0.0018303
0.00183711
0.00184713
0.00187114
0.00195729
0.00198624
0.001715
0.00122887
0.000932472
0.000783685
0.000686429
0.000637785
0.000608206
0.000574896
0.000585651
0.000553476
0.000520471
0.00184464
0.00185389
0.00184356
0.00183593
0.00182375
0.00181421
0.00182838
0.00183537
0.00184711
0.00187227
0.00196525
0.00197642
0.00165522
0.00117369
0.000917188
0.000798724
0.000720976
0.000678943
0.000662538
0.000633866
0.000636253
0.000597231
0.000566618
0.00184053
0.00184459
0.00183707
0.00183442
0.00182771
0.00181218
0.00182802
0.00183398
0.00184653
0.00187383
0.0019659
0.00196742
0.00161258
0.00114694
0.000910969
0.000813361
0.000753212
0.00072139
0.000726271
0.000691553
0.00068628
0.000695394
0.00066949
0.00183793
0.00183748
0.00183008
0.00182829
0.00182939
0.00181309
0.00182862
0.00183277
0.00184665
0.00187636
0.00197328
0.00195806
0.00155805
0.00112166
0.000893166
0.000826498
0.000783978
0.000759876
0.000781782
0.000745412
0.000789189
0.000699177
0.000670862
0.00183896
0.00183371
0.00182239
0.00182352
0.00182832
0.00181418
0.00182982
0.00183189
0.00184611
0.0018775
0.00197526
0.00194715
0.00151088
0.00109298
0.000892841
0.000858604
0.00084619
0.000830449
0.000830189
0.000822958
0.000804316
0.000669855
0.000635295
0.00184275
0.00183092
0.00181908
0.00181999
0.00183043
0.00181594
0.00183
0.00183158
0.00184605
0.00188036
0.00197798
0.00192842
0.00146569
0.0010773
0.000906678
0.000913666
0.000900491
0.000890921
0.000889487
0.000869616
0.000773905
0.000640519
0.000597844
0.00184451
0.00183138
0.00181882
0.00181996
0.0018318
0.00181854
0.00183008
0.00183172
0.00184578
0.0018824
0.00198114
0.00191702
0.00141168
0.00106029
0.000907168
0.000929934
0.000916607
0.000918201
0.000895415
0.000845745
0.000695917
0.000595787
0.000554893
0.00184749
0.00183105
0.00181974
0.00182059
0.00183428
0.00182119
0.00183049
0.00183208
0.00184562
0.00188526
0.00198157
0.00189986
0.00136854
0.00104129
0.000903397
0.000938179
0.000924604
0.000927548
0.000869043
0.000771596
0.000631234
0.000561929
0.000518183
0.00184895
0.00183244
0.0018225
0.00182256
0.00183656
0.00182417
0.00183058
0.0018325
0.00184559
0.00188659
0.00198283
0.00187833
0.00133498
0.00102343
0.000891821
0.000921687
0.000904877
0.000909539
0.000806595
0.00069845
0.000582427
0.000528589
0.000493484
0.00185273
0.00183264
0.00182379
0.00182498
0.00183829
0.00182654
0.00183098
0.00183329
0.00184522
0.00189009
0.00198345
0.00186502
0.0013121
0.00098899
0.000851446
0.000842943
0.000850079
0.000852281
0.000740249
0.000631794
0.000542266
0.000506241
0.000452807
0.00185625
0.00183359
0.0018265
0.00182818
0.00184021
0.00182859
0.00183077
0.00183406
0.00184572
0.00189131
0.00198488
0.00186091
0.00129261
0.000950065
0.000816313
0.000763637
0.000798799
0.000794967
0.000679695
0.000582552
0.000515221
0.000495544
0.000360573
0.00186067
0.00183416
0.00182746
0.0018309
0.00184093
0.00182998
0.00183039
0.00183479
0.00184538
0.00189386
0.00198412
0.00186388
0.00129007
0.000941083
0.000800937
0.000719659
0.000755463
0.000748378
0.000641573
0.000556533
0.000506703
0.000433389
0.000290438
0.00186403
0.00183494
0.00182935
0.00183399
0.00184139
0.00183072
0.00182981
0.00183506
0.00184571
0.00189454
0.0019867
0.00187532
0.00131342
0.000941967
0.000786333
0.000682699
0.000721808
0.000708214
0.000617271
0.00054309
0.000476195
0.000333106
0.000230049
0.00186675
0.00183544
0.00183022
0.00183562
0.00184118
0.00183181
0.00182895
0.00183543
0.00184586
0.00189689
0.00198983
0.00189391
0.00134627
0.000957217
0.000785583
0.000665028
0.000703092
0.00067751
0.000604998
0.000541642
0.000380468
0.000270755
0.000195496
0.00186895
0.00183606
0.0018318
0.00183809
0.00184047
0.00183166
0.00182835
0.00183527
0.00184576
0.00189793
0.00199097
0.00190939
0.0013948
0.00098298
0.000787677
0.000662922
0.000696214
0.000662979
0.000603223
0.000471902
0.000311789
0.000230174
0.000171164
0.00186942
0.00183638
0.00183305
0.00183848
0.00183993
0.0018326
0.00182752
0.00183522
0.001846
0.00189936
0.00199402
0.0019298
0.00144675
0.00103052
0.000794276
0.000677449
0.000706449
0.00066252
0.000614348
0.000391047
0.000266316
0.000206334
0.000157298
0.00186943
0.00183613
0.00183422
0.00183952
0.00183858
0.00183209
0.00182699
0.00183486
0.00184585
0.00190091
0.00199193
0.00194282
0.00150254
0.00108136
0.000798029
0.000698418
0.000710653
0.000662083
0.000566227
0.0003405
0.000250741
0.000194459
0.000155599
0.00186844
0.00183647
0.00183626
0.00183938
0.00183836
0.00183234
0.00182653
0.00183439
0.00184569
0.00190146
0.0019917
0.00195513
0.00156209
0.00113548
0.000796247
0.000728885
0.000732122
0.000679353
0.000512006
0.000322203
0.000242373
0.000193173
0.000156641
0.00186671
0.00183564
0.00183682
0.00183906
0.0018372
0.00183194
0.00182602
0.00183416
0.00184509
0.00190148
0.00198394
0.00196572
0.00161188
0.00118783
0.000794379
0.000758986
0.000746787
0.000705843
0.000488298
0.000319794
0.000248219
0.000203473
0.00016636
0.00186366
0.00183485
0.00183878
0.00183841
0.00183696
0.00183178
0.00182611
0.00183338
0.0018443
0.00189855
0.00197885
0.00196539
0.00166318
0.00123625
0.000795231
0.000781863
0.00076175
0.000729808
0.000486073
0.000323549
0.000260116
0.000218121
0.00017698
0.00186257
0.00183534
0.0018399
0.00183798
0.00183663
0.00183085
0.0018255
0.00183314
0.00184333
0.00189614
0.00196912
0.00196928
0.00170155
0.00127643
0.000792001
0.000793545
0.000774533
0.000748318
0.000496188
0.000341193
0.000277083
0.000235561
0.000193956
0.00185767
0.00183281
0.0018398
0.00183639
0.00183599
0.00183103
0.00182585
0.00183272
0.00184207
0.0018951
0.00196157
0.00196936
0.00173087
0.00130354
0.000795502
0.000803042
0.000780727
0.000762909
0.000523362
0.000366689
0.000298994
0.000265684
0.000217348
0.00185507
0.00183284
0.00184047
0.00183571
0.00183593
0.00183005
0.00182547
0.00183185
0.00184097
0.00189366
0.00195525
0.00196284
0.00174785
0.00134071
0.000793733
0.000811218
0.000801586
0.000777127
0.000546807
0.000392224
0.000320465
0.000293638
0.00024007
0.00185185
0.00183151
0.00183991
0.00183416
0.00183412
0.00182899
0.00182515
0.0018319
0.00184013
0.00189408
0.00195129
0.00196079
0.00176452
0.0013576
0.000782204
0.000822285
0.000817014
0.000790139
0.000576587
0.000426504
0.000352136
0.000318118
0.000269662
0.00184703
0.00182947
0.00183815
0.00183249
0.00183401
0.00182918
0.00182542
0.00183106
0.001839
0.00189395
0.00194967
0.00195577
0.00178251
0.00137245
0.000773719
0.000830482
0.000833977
0.000789907
0.000631251
0.000466967
0.000378027
0.000347479
0.00029688
0.00183911
0.00182132
0.00183181
0.00182849
0.00183221
0.00182671
0.00182369
0.00183018
0.00183831
0.00189188
0.00194524
0.00195252
0.00178555
0.00137679
0.000788095
0.000843389
0.000851136
0.000793354
0.000690884
0.000516917
0.000412706
0.000375733
0.000325248
0.00183228
0.00182071
0.00182771
0.00182391
0.00182667
0.00182568
0.00182154
0.00183015
0.00183713
0.00188925
0.00194499
0.0019495
0.00178412
0.00138488
0.000798969
0.000855561
0.000858279
0.000795907
0.000704214
0.000572335
0.000459088
0.000410915
0.000372918
0.00182359
0.00182076
0.00182203
0.00182219
0.00182479
0.00182461
0.0018222
0.0018286
0.00183659
0.00188669
0.00194507
0.00194775
0.00178652
0.00138827
0.000823222
0.000868921
0.000862183
0.000805295
0.000698525
0.000629166
0.000514313
0.000455439
0.000417593
0.00181852
0.00182045
0.00182109
0.00182119
0.00182478
0.00182259
0.00182244
0.00182677
0.00183518
0.00188405
0.00194429
0.00194935
0.00179116
0.00138328
0.000850811
0.000871042
0.000863174
0.00080711
0.000699429
0.000634907
0.000577003
0.000520201
0.000494749
0.0018185
0.00182008
0.00181821
0.00182126
0.00182292
0.00182262
0.0018214
0.00182687
0.00183498
0.00188156
0.0019454
0.00194915
0.0017874
0.0013879
0.000864411
0.000878366
0.000871381
0.00080192
0.000700671
0.000634464
0.000599928
0.000567439
0.00053461
0.00181862
0.00181958
0.00181669
0.00181981
0.00182118
0.00182241
0.00182068
0.00182605
0.00183563
0.0018791
0.00194547
0.00194903
0.00179359
0.00138851
0.000883329
0.000881758
0.000873712
0.000792822
0.000698708
0.000634229
0.000592263
0.000568603
0.000546433
0.00181966
0.00181853
0.00181871
0.00182058
0.00182122
0.00182175
0.00181972
0.00182668
0.00183469
0.00187752
0.00194559
0.00195009
0.0017941
0.00138916
0.000901798
0.000888337
0.00086712
0.000785205
0.000695568
0.000633749
0.000587057
0.000555461
0.000556727
0.00181614
0.00181885
0.00181883
0.00181984
0.00182048
0.00182246
0.00182061
0.0018265
0.00183428
0.00187469
0.00194569
0.00194997
0.00179516
0.00138783
0.000909246
0.000902062
0.000853546
0.000769415
0.000691411
0.000629691
0.000588445
0.000552065
0.000559603
0.00181822
0.00181926
0.0018201
0.00181854
0.00181894
0.001821
0.00182089
0.00182583
0.00183496
0.00187434
0.00194411
0.00195245
0.00179637
0.00139296
0.000921444
0.000902749
0.000838146
0.000759366
0.000688446
0.000629039
0.000579608
0.000559273
0.000575579
0.00181586
0.0018176
0.00181891
0.00181933
0.00181875
0.00182117
0.00182093
0.00182678
0.00183476
0.00187376
0.00194502
0.00195055
0.00179772
0.0013927
0.000940006
0.00090367
0.000824281
0.000745793
0.000685854
0.000631949
0.000584191
0.000566671
0.00058109
0.00181606
0.00181554
0.00181879
0.00181969
0.00181862
0.00182177
0.00182054
0.00182659
0.00183462
0.00187362
0.00194549
0.00195261
0.00179862
0.00139034
0.000955478
0.000895392
0.000828256
0.000743913
0.000682254
0.00063326
0.000594531
0.00057258
0.000596049
0.00181652
0.0018185
0.00181962
0.00181935
0.00182039
0.00182041
0.0018205
0.00182544
0.00183485
0.00187293
0.00194552
0.00195208
0.00180746
0.00139584
0.000986498
0.000894972
0.000826651
0.000737103
0.000684109
0.000643237
0.000611811
0.000583741
0.000605192
0.00181537
0.00181621
0.00181995
0.00182139
0.00182008
0.00182047
0.00182042
0.001826
0.00183465
0.00187336
0.0019452
0.0019514
0.00180667
0.00138701
0.00101289
0.000903122
0.000839254
0.000738627
0.000688698
0.000649845
0.000626354
0.000608219
0.000611504
0.00181563
0.00181608
0.00181807
0.00182036
0.00182032
0.0018196
0.00181913
0.00182463
0.00183473
0.00187363
0.00194693
0.00195377
0.00180877
0.00137575
0.00105991
0.000911119
0.00084917
0.00074998
0.000696234
0.00066633
0.000638513
0.000640927
0.000617918
0.00181228
0.00181691
0.00181971
0.00182188
0.00182002
0.00182032
0.0018205
0.0018252
0.00183477
0.00187373
0.00194933
0.00195484
0.0018105
0.00135655
0.00110486
0.000930977
0.000864714
0.000761018
0.000709019
0.000676222
0.000658354
0.00067917
0.000678559
0.00181438
0.00181447
0.00181746
0.00182321
0.00181773
0.00182009
0.00181963
0.00182398
0.00183489
0.00187344
0.00195296
0.00195615
0.00180422
0.00135986
0.00112238
0.000951308
0.000875371
0.000776353
0.000718419
0.000694519
0.000685701
0.000703866
0.000709887
0.0018146
0.0018191
0.00182067
0.00182269
0.00181711
0.00181914
0.00181937
0.00182362
0.00183415
0.00187448
0.00195631
0.00195923
0.00180639
0.00135317
0.00116138
0.000970513
0.000902743
0.000802035
0.000744577
0.000699301
0.000669124
0.000716521
0.000759196
0.00181456
0.00181709
0.00182106
0.00182258
0.00181805
0.00182039
0.0018191
0.00182464
0.00183419
0.00187452
0.00195904
0.00196043
0.00180114
0.00137524
0.00118633
0.00100287
0.000916394
0.000815757
0.000759449
0.000738522
0.000721121
0.00076664
0.000781342
0.00181459
0.00181777
0.00182146
0.0018216
0.00181825
0.00182049
0.00182088
0.00182471
0.00183462
0.00187395
0.00196136
0.00196539
0.00178984
0.0014031
0.00120974
0.0010433
0.000942447
0.000845068
0.000789347
0.000758219
0.000714059
0.000779758
0.000833843
0.0018137
0.00181911
0.00182118
0.00181896
0.00181749
0.00181839
0.00181996
0.00182479
0.00183573
0.00187446
0.00196229
0.00196532
0.00176924
0.00142702
0.00125179
0.00107026
0.000969417
0.000876333
0.000810021
0.000784493
0.000771374
0.000858463
0.000896491
0.00181471
0.00181788
0.00182092
0.00181784
0.00181717
0.00181978
0.00182048
0.00182476
0.00183575
0.00187474
0.00196312
0.00196722
0.00176401
0.00147034
0.00127992
0.00110989
0.000996461
0.000907709
0.000843436
0.00082022
0.000802041
0.000916311
0.000937155
0.00181065
0.00181816
0.00182036
0.0018182
0.00181886
0.00182058
0.00181876
0.00182455
0.00183649
0.00187555
0.00196283
0.00196694
0.0017446
0.00151497
0.00133479
0.00115252
0.00101464
0.000935293
0.0008606
0.000819465
0.000845973
0.000937286
0.000969486
0.00180903
0.00181771
0.0018192
0.00181605
0.00182045
0.00181923
0.00181852
0.00182316
0.00183612
0.00187789
0.0019635
0.0019697
0.00174263
0.00153188
0.00135994
0.00118164
0.00103533
0.000948334
0.000915362
0.000918302
0.000908047
0.00105303
0.00115748
0.00181224
0.00181679
0.00181705
0.00181705
0.00182032
0.00181886
0.00181901
0.0018228
0.00183627
0.0018791
0.00196464
0.00196762
0.00174295
0.0016171
0.00140827
0.00122498
0.00105582
0.000972569
0.000924458
0.000880475
0.000997836
0.00117478
0.00133493
0.00181521
0.00181602
0.00181692
0.00181928
0.00181928
0.00181731
0.00181906
0.00182301
0.00183482
0.00188104
0.00196521
0.00196981
0.00173375
0.00157543
0.00143817
0.00126675
0.00107877
0.00100223
0.000985442
0.000965244
0.00116809
0.00146353
0.001463
0.00181723
0.00181405
0.00181679
0.00182069
0.00182098
0.00181788
0.00181872
0.00182479
0.00183554
0.00188286
0.00197058
0.00197106
0.00175249
0.00161503
0.00147157
0.00129853
0.0010876
0.00104672
0.00109013
0.00117585
0.00125407
0.0014179
0.00152407
0.00181629
0.00181407
0.00181567
0.00182248
0.00181894
0.00181769
0.00181903
0.00182651
0.00183431
0.00188318
0.00197012
0.00197404
0.00178098
0.00173861
0.00152937
0.00137287
0.00115174
0.0011415
0.00119972
0.00125744
0.00132612
0.00149124
0.00159872
0.00181448
0.00180782
0.00181498
0.00182155
0.00181395
0.00182168
0.00181802
0.00182879
0.00183225
0.00188404
0.00197099
0.0019893
0.0017984
0.00177726
0.00159555
0.00144844
0.00121418
0.00121314
0.00127118
0.00128051
0.00143505
0.00155175
0.00168234
0.00180969
0.00180808
0.0018145
0.00181624
0.00181386
0.00182167
0.00181759
0.0018272
0.00182993
0.00188265
0.0019735
0.00199575
0.00180013
0.00183699
0.00169206
0.00154812
0.00132964
0.00131625
0.00134863
0.0012873
0.00138211
0.00154411
0.00167545
0.00181416
0.00180593
0.00181432
0.00181409
0.00181711
0.00181846
0.00182226
0.0018267
0.00182971
0.00187882
0.00197191
0.00201239
0.00184121
0.00190663
0.00181338
0.00168078
0.00145805
0.00141615
0.00143702
0.00135289
0.00143916
0.00164243
0.00176679
0.00181659
0.00180562
0.00181429
0.00181338
0.00182045
0.00181719
0.0018221
0.0018275
0.00183177
0.00187558
0.00196455
0.00202008
0.001887
0.00203314
0.00197074
0.00181583
0.00164479
0.00158451
0.00156203
0.00149674
0.0014748
0.00170782
0.00179923
0.00181191
0.00180209
0.0018149
0.0018136
0.00181956
0.00181765
0.00181822
0.00182779
0.00183226
0.00187238
0.00195716
0.00202613
0.00190127
0.00215646
0.00214071
0.00193152
0.00178204
0.00169283
0.00172903
0.00167586
0.00164084
0.00173477
0.00189045
0.00180645
0.00179665
0.00181438
0.00181474
0.00182062
0.00181701
0.00181598
0.00182823
0.00183236
0.00186934
0.00195005
0.00206399
0.00191726
0.00225336
0.00227257
0.00208027
0.00195031
0.00188662
0.0018251
0.00184492
0.00183677
0.00193102
0.00197534
0.00180146
0.00180084
0.00181402
0.00181299
0.00181573
0.00181579
0.00181527
0.00182796
0.00183212
0.00186662
0.00194181
0.00208305
0.00204917
0.00242701
0.00242307
0.00221968
0.00216344
0.00209447
0.00201609
0.00203876
0.00205693
0.00213213
0.00220254
0.00179408
0.00181015
0.00181335
0.00181358
0.00181304
0.00181479
0.00181717
0.00182483
0.00183181
0.00186421
0.00193773
0.00212598
0.00213768
0.00241097
0.00271335
0.0024032
0.00233434
0.00229521
0.00235325
0.00231297
0.0022994
0.00235765
0.00231875
0.00179857
0.00181582
0.0018122
0.00181246
0.00181115
0.0018132
0.00181826
0.00182352
0.0018315
0.00186221
0.00193144
0.00213603
0.00221336
0.00268999
0.00290596
0.00266741
0.00252376
0.00256651
0.00256364
0.00257272
0.0025867
0.00275305
0.0026575
0.00180994
0.00181878
0.00181206
0.00180985
0.00180991
0.00181296
0.00181865
0.0018226
0.00183126
0.00186069
0.00192964
0.00217754
0.00240936
0.00283415
0.00327985
0.00280979
0.00278873
0.00276714
0.00279935
0.00283536
0.00305916
0.00285444
0.00271074
0.0018129
0.00181896
0.001812
0.00180982
0.00180794
0.00181368
0.0018185
0.00182189
0.00183098
0.00185932
0.00193143
0.00218413
0.00251954
0.00320388
0.00364815
0.00329012
0.00322846
0.00324264
0.00329218
0.00319979
0.00310143
0.00313941
0.002912
0.00181236
0.00181703
0.00181211
0.00181155
0.00180855
0.00181457
0.00181795
0.00182133
0.00183076
0.00185843
0.00193117
0.00221434
0.00264384
0.00394982
0.00425733
0.00384172
0.00352459
0.00362785
0.00365929
0.00344722
0.00334323
0.00312791
0.00309162
0.00181001
0.00181417
0.00181173
0.00181277
0.00181006
0.00181496
0.00181712
0.00182069
0.00183039
0.0018578
0.0019308
0.00223818
0.00281004
0.00427316
0.00456446
0.00420282
0.00409783
0.00441596
0.00426819
0.00362491
0.00354111
0.00328049
0.00325878
0.00180707
0.00181091
0.00181049
0.00181362
0.00181137
0.00181449
0.001816
0.0018199
0.00183003
0.00185621
0.00193998
0.00227742
0.00303069
0.00472894
0.00567269
0.00486972
0.00461851
0.00457457
0.00457647
0.00373837
0.00409832
0.00356582
0.00345022
0.00180391
0.00180792
0.0018085
0.00181393
0.00181176
0.0018133
0.00181464
0.00181883
0.00182931
0.00185392
0.00195803
0.00234441
0.0032004
0.00483713
0.00581994
0.00584374
0.00526383
0.00526179
0.00469588
0.00448214
0.00430655
0.00411833
0.00431443
0.00180108
0.00180513
0.00180594
0.0018132
0.00181103
0.00181144
0.00181301
0.00181738
0.00182825
0.00185261
0.00194754
0.00248505
0.00352948
0.00598665
0.0060884
0.00661564
0.0063503
0.00675353
0.00593326
0.00543052
0.00529197
0.0044744
0.00451688
0.00179835
0.00180277
0.00180292
0.0018115
0.00180937
0.00180928
0.00181116
0.00181558
0.00182655
0.00185123
0.00191585
0.00260779
0.00448896
0.00666886
0.00675525
0.0071707
0.00778923
0.00699188