/*--------------------------------*- C++ -*----------------------------------*\
  =========                 |
  \\      /  F ield         | OpenFOAM: The Open Source CFD Toolbox
   \\    /   O peration     | Website:  https://openfoam.org
    \\  /    A nd           | Version:  7
     \\/     M anipulation  |
\*---------------------------------------------------------------------------*/
FoamFile
{
    version     2.0;
    format      ascii;
    class       volScalarField;
    location    "50";
    object      omega;
}
// * * * * * * * * * * * * * * * * * * * * * * * * * * * * * * * * * * * * * //

dimensions      [0 0 -1 0 0 0 0];

internalField   nonuniform List<scalar> 
12842
(
3.13999
2.84241
2.65069
2.52488
2.43977
2.37166
2.32749
2.28914
2.26848
2.24697
2.23598
2.22638
2.22838
2.2349
2.25426
2.28276
2.35277
2.43057
2.55248
2.64641
2.78176
2.87061
2.99085
3.12443
2.81313
2.62511
2.50893
2.43175
2.36849
2.32588
2.28685
2.26442
2.24419
2.23478
2.22499
2.22688
2.23481
2.25235
2.28394
2.34378
2.42311
2.54479
2.63712
2.77468
2.86092
2.99371
3.10562
2.78723
2.58949
2.46673
2.39869
2.35167
2.31534
2.27973
2.25971
2.23836
2.23
2.22301
2.22566
2.2343
2.25362
2.28721
2.34513
2.42792
2.55354
2.64391
2.78719
2.86754
2.99171
3.07319
2.75712
2.57266
2.45432
2.38033
2.33434
2.30572
2.27563
2.25604
2.23604
2.22814
2.2206
2.22393
2.23595
2.25609
2.29262
2.35355
2.43614
2.55637
2.65949
2.79307
2.9065
3.02415
3.04925
2.71338
2.53499
2.42426
2.35293
2.31644
2.28698
2.26471
2.2482
2.23034
2.22444
2.21915
2.2236
2.23677
2.25743
2.29622
2.3604
2.45251
2.5769
2.67841
2.79681
2.93762
3.05845
3.01577
2.68637
2.51043
2.4109
2.34007
2.3036
2.27847
2.25949
2.24291
2.22752
2.22282
2.21745
2.22247
2.23563
2.25934
2.30218
2.37049
2.46565
2.58558
2.71244
2.82357
2.9519
3.13327
2.98789
2.64582
2.48023
2.38277
2.32169
2.28767
2.26314
2.2488
2.23536
2.22243
2.21926
2.21625
2.22151
2.23553
2.26236
2.30959
2.38596
2.50014
2.61669
2.76556
2.89708
3.02068
3.23089
2.95717
2.62185
2.45791
2.37084
2.30944
2.27939
2.25626
2.24407
2.22964
2.21995
2.21752
2.21496
2.22108
2.23568
2.26461
2.31339
2.39371
2.51758
2.64353
2.80619
2.94647
3.09399
3.35107
2.92692
2.59018
2.43312
2.34728
2.29661
2.26622
2.2459
2.23694
2.22394
2.21654
2.2147
2.21293
2.22152
2.2367
2.26778
2.326
2.41804
2.56072
2.70885
2.91081
3.09632
3.25029
3.51117
2.89413
2.56313
2.41497
2.33742
2.28851
2.26002
2.24116
2.23267
2.21991
2.21491
2.21337
2.21118
2.22155
2.23905
2.27537
2.33556
2.43374
2.58696
2.76626
3.00077
3.18157
3.41667
3.72
2.86023
2.53583
2.39211
2.31793
2.27787
2.25046
2.23519
2.22741
2.21712
2.213
2.21032
2.21088
2.22144
2.24352
2.2872
2.36835
2.48902
2.66373
2.86061
3.15127
3.38497
3.61785
3.92083
2.82658
2.51125
2.37689
2.30879
2.27118
2.24599
2.23085
2.22441
2.21443
2.21131
2.20827
2.20989
2.22396
2.25293
2.30434
2.39253
2.52545
2.7285
2.99366
3.30112
3.54561
3.8381
4.17127
2.79504
2.4872
2.35651
2.29202
2.26024
2.23807
2.22624
2.21979
2.21244
2.20905
2.20596
2.21
2.22837
2.27348
2.35342
2.47394
2.62919
2.84504
3.10709
3.47766
3.75248
4.11317
4.44919
2.76181
2.46702
2.34403
2.28411
2.25489
2.23441
2.22308
2.21752
2.20997
2.20775
2.20455
2.21236
2.24581
2.31004
2.39566
2.52821
2.68989
2.9795
3.29665
3.64794
4.00727
4.36255
4.70225
2.73383
2.44605
2.32559
2.27015
2.24511
2.22771
2.21793
2.21302
2.20668
2.20442
2.20418
2.22061
2.2801
2.36911
2.49057
2.65691
2.83895
3.09604
3.45088
3.87477
4.19633
4.65898
5.0428
2.70322
2.42918
2.3148
2.26369
2.24015
2.2243
2.21526
2.21065
2.20376
2.20347
2.2108
2.24824
2.3289
2.4254
2.55222
2.73286
2.93423
3.29705
3.6552
4.04384
4.51524
4.96063
5.3457
2.68001
2.41324
2.2998
2.2521
2.23185
2.21765
2.20985
2.20573
2.19912
2.20256
2.22391
2.28385
2.39103
2.51714
2.67739
2.8869
3.10687
3.41474
3.83028
4.3098
4.71945
5.20685
5.63111
2.65592
2.39715
2.28803
2.24674
2.2279
2.21405
2.20724
2.20382
2.20201
2.21172
2.25689
2.33874
2.45918
2.58629
2.7537
2.97865
3.2394
3.6386
4.05279
4.47197
5.02068
5.56311
6.05772
2.63852
2.38594
2.27789
2.2366
2.22028
2.20674
2.20042
2.19939
2.20272
2.22723
2.2898
2.39638
2.54082
2.69799
2.89217
3.13734
3.39782
3.78681
4.23228
4.7476
5.30562
5.84926
6.34827
2.61979
2.37183
2.26559
2.23129
2.21641
2.20326
2.19929
2.20929
2.22494
2.26809
2.34401
2.46901
2.61793
2.7723
2.97543
3.2458
3.58601
3.99803
4.47401
4.98652
5.53139
6.11835
6.73976
2.60551
2.36201
2.2586
2.22285
2.20853
2.19519
2.19758
2.21633
2.25052
2.30495
2.39517
2.54204
2.71065
2.89367
3.12245
3.40879
3.71225
4.19744
4.70972
5.20948
5.89314
6.59844
7.25185
2.59057
2.35043
2.24742
2.21491
2.20477
2.19684
2.20938
2.24922
2.30939
2.36846
2.46611
2.62473
2.79017
2.9677
3.20441
3.52528
3.95988
4.40896
4.91524
5.5931
6.24215
6.88627
7.5159
2.57814
2.34158
2.24145
2.20945
2.19747
2.19434
2.23287
2.28814
2.35361
2.42208
2.53005
2.70399
2.88559
3.09214
3.35754
3.70204
4.0815
4.62989
5.25796
5.83863
6.50794
7.2521
8.12176
2.56755
2.33202
2.23288
2.20207
2.19219
2.20317
2.27595
2.35217
2.43234
2.50493
2.61606
2.7961
2.9683
3.16727
3.44496
3.82754
4.32558
4.88879
5.49845
6.20444
7.00768
7.99606
8.86848
2.55782
2.32772
2.2297
2.19684
2.19448
2.22797
2.32241
2.40831
2.50003
2.57508
2.69069
2.87758
3.0606
3.28785
3.59269
4.00518
4.53805
5.16859
5.85483
6.71851
7.69887
8.70357
9.76492
2.54987
2.3181
2.2231
2.19507
2.20668
2.26989
2.37708
2.46833
2.56912
2.64623
2.76418
2.95341
3.12516
3.3511
3.69036
4.18673
4.7501
5.45339
6.32693
7.29705
8.24355
9.48025
11.0128
2.53955
2.31317
2.22023
2.19547
2.23672
2.31693
2.4356
2.53417
2.63743
2.71717
2.83765
3.02859
3.21074
3.46483
3.82186
4.31495
5.0628
5.86772
6.88365
7.84845
9.20719
11.5131
14.05
2.53062
2.30313
2.21522
2.2073
2.27378
2.37252
2.49681
2.59781
2.70388
2.78557
2.90664
3.09638
3.26386
3.52389
3.94475
4.57889
5.30631
6.35115
7.36559
8.8888
11.2968
14.7575
17.9119
2.51978
2.297
2.21067
2.22661
2.32228
2.42842
2.5573
2.66165
2.76652
2.85083
2.97348
3.16218
3.34263
3.63733
4.07785
4.73852
5.71684
6.70471
8.37253
10.5072
13.986
17.9458
21.8461
2.50977
2.2875
2.21131
2.26006
2.37581
2.49109
2.61768
2.72094
2.82521
2.91134
3.03331
3.21958
3.38592
3.69542
4.21064
5.00958
6.02223
7.51604
9.46881
12.3223
16.3479
21.2451
27.2691
2.49952
2.28366
2.22313
2.29752
2.43503
2.55062
2.6738
2.77633
2.87877
2.96715
3.08975
3.2738
3.4578
3.81487
4.40008
5.28216
6.55895
8.28076
10.6946
14.1324
19.47
27.2987
39.7844
2.48726
2.27645
2.2456
2.3425
2.49541
2.61112
2.7286
2.8269
2.92743
3.01744
3.13835
3.31962
3.49422
3.87794
4.53123
5.59354
7.16047
9.20701
11.9313
16.6179
25.5498
42.7214
58.3516
2.47917
2.27624
2.27937
2.3935
2.55754
2.66862
2.7768
2.87151
2.97076
3.06245
3.18323
3.3629
3.56145
4.00892
4.78275
6.00945
7.74299
10.0519
13.7091
21.3794
40.052
61.2991
75.4384
2.46693
2.2855
2.31839
2.44425
2.6155
2.72107
2.82247
2.91171
3.00914
3.10229
3.22094
3.39748
3.59598
4.0892
4.98694
6.438
8.46894
11.448
16.752
31.9595
57.1837
77.2113
87.8015
2.46012
2.30773
2.36404
2.49931
2.672
2.7706
2.86186
2.94619
3.0427
3.13687
3.25524
3.43291
3.66011
4.22732
5.23014
6.86057
9.37478
13.3381
23.2771
46.2005
72.0506
87.7947
94.9023
2.45027
2.33577
2.41169
2.55097
2.72415
2.81496
2.89764
2.97721
3.07197
3.16734
3.28384
3.45906
3.70419
4.36462
5.55559
7.58927
10.8257
16.8841
34.1983
59.5547
81.934
92.6702
98.3992
2.4489
2.37408
2.46228
2.60286
2.77062
2.85384
2.92996
3.0039
3.09724
3.19305
3.30943
3.48776
3.75623
4.47205
5.85071
8.38524
12.6122
24.055
46.0096
69.728
86.4713
96.3101
103.042
2.4539
2.41605
2.5116
2.6519
2.81527
2.89102
2.95704
3.02854
3.11934
3.21566
3.33134
3.51222
3.82972
4.70443
6.35805
9.35857
16.5508
33.7551
56.3438
75.4036
90.9329
97.8814
103.01
2.47034
2.46459
2.56091
2.69738
2.85309
2.92186
2.98437
3.05037
3.13831
3.23462
3.3502
3.53281
3.86912
4.82971
6.73407
11.4248
23.3133
43.4642
63.7061
79.9385
92.9727
96.9208
101.386
2.49414
2.51412
2.60869
2.74154
2.88978
2.95232
3.00615
3.07052
3.15518
3.25087
3.36777
3.56089
3.96153
5.09409
7.73533
14.9737
31.5588
51.594
67.9063
82.9415
90.8691
94.2694
98.1346
2.52365
2.56572
2.65481
2.7814
2.92223
2.97857
3.02898
3.08989
3.16975
3.26519
3.38155
3.57573
4.01858
5.41695
9.28104
20.0166
39.2736
57.0638
71.0399
81.3509
86.7825
89.6402
93.5675
2.55828
2.61568
2.70006
2.82024
2.94972
3.00459
3.04825
3.10722
3.18279
3.27663
3.3969
3.60709
4.13814
5.90401
11.4036
25.6385
45.5849
59.9439
70.5974
77.5116
81.4162
84.101
88.027
2.59653
2.66531
2.74272
2.8545
2.9777
3.02707
3.06787
3.12435
3.19416
3.2878
3.40702
3.62575
4.24051
6.62003
13.7831
31.0902
49.4812
61.3234
68.1479
72.7125
75.8473
78.7932
82.3761
2.63281
2.71226
2.78651
2.8904
2.99695
3.04613
3.08485
3.13842
3.20446
3.29602
3.42136
3.65724
4.41096
7.28975
16.7657
35.6862
51.672
60.7937
64.5015
67.6077
69.9172
73.4343
76.4841
2.67406
2.75635
2.82564
2.92072
3.0153
3.05911
3.09977
3.15133
3.21345
3.30496
3.42997
3.68727
4.59673
8.3607
19.6021
39.1923
52.7555
59.0339
60.5294
62.6317
64.5351
68.9274
71.0453
2.7087
2.79709
2.86549
2.94891
3.03539
3.06995
3.1115
3.16283
3.22169
3.3113
3.4433
3.72094
4.7918
9.28971
22.4451
41.5325
52.3083
56.7741
57.0089
58.0948
59.3901
63.6869
65.4348
2.74698
2.83055
2.89703
2.97277
3.04344
3.07724
3.12038
3.17053
3.22872
3.31856
3.45235
3.76112
5.07214
10.3758
25.2577
42.8482
51.0555
54.4299
53.8512
54.2576
55.3369
59.6185
60.7229
2.77124
2.86244
2.92662
2.99173
3.04497
3.08643
3.12653
3.17946
3.2355
3.32429
3.46678
3.81548
5.31323
11.5928
27.6922
43.578
49.6155
52.3383
51.2787
51.0919
51.7394
55.5465
56.2725
2.7977
2.88512
2.9481
3.00977
3.05131
3.09246
3.13124
3.18612
3.24114
3.33001
3.47656
3.85702
5.6232
12.6918
29.7685
43.6189
48.3963
50.7583
49.5928
48.5458
49.1062
52.3541
52.3785
2.81552
2.90968
2.96793
3.02503
3.06135
3.10083
3.13651
3.19207
3.24712
3.33605
3.49162
3.91765
5.95466
13.7736
31.4128
43.7494
47.33
49.3626
47.9762
46.6901
46.7791
49.6283
49.4543
2.83278
2.9266
2.98193
3.03918
3.06883
3.10687
3.14188
3.19581
3.25217
3.34025
3.50361
3.97494
6.23957
14.844
32.6974
43.577
46.5043
48.2417
46.9076
44.5596
44.8621
47.1943
46.6383
2.84975
2.94321
2.99493
3.05043
3.07662
3.11315
3.14799
3.19987
3.25697
3.34551
3.51395
4.02524
6.587
15.8921
33.4881
43.2661
46.3135
47.8009
46.6127
43.9228
43.9625
45.156
44.3866
2.86747
2.95735
3.00663
3.06121
3.08275
3.11858
3.15329
3.20343
3.26125
3.34961
3.52879
4.08242
6.93019
16.5806
33.88
43.0609
45.8907
47.2336
45.5541
42.4849
41.7463
42.066
41.4066
2.88612
2.97159
3.01923
3.07089
3.08935
3.12492
3.15942
3.20735
3.26536
3.35463
3.53814
4.14573
7.20146
16.9069
33.7372
42.822
44.465
45.4667
42.7064
39.943
38.6978
38.8426
38.2137
2.90297
2.98594
3.03236
3.08056
3.09592
3.13159
3.1651
3.21056
3.26866
3.35817
3.54886
4.20108
7.33171
16.8001
32.3537
41.5254
40.1625
41.2986
38.3787
36.2668
34.81
34.6204
33.9235
2.91878
2.99987
3.04599
3.08926
3.10318
3.13968
3.17207
3.21436
3.27233
3.36424
3.56149
4.22819
7.34081
16.0765
29.1393
37.1102
34.4069
36.1906
33.6605
32.1853
30.941
30.6606
30.4204
2.93321
3.01348
3.05944
3.09756
3.11103
3.14717
3.1784
3.21711
3.27484
3.36756
3.56958
4.22414
7.13397
14.7751
25.847
31.8267
29.3303
31.5612
29.4367
28.2716
27.132
26.871
26.8193
2.94645
3.02603
3.07196
3.1053
3.11945
3.1556
3.18527
3.22034
3.27689
3.37131
3.57385
4.19504
6.7906
13.402
22.6444
26.7878
24.7832
27.3206
25.5149
24.633
23.935
23.9954
23.6561
2.96081
3.03926
3.08484
3.11411
3.12876
3.16333
3.19239
3.22336
3.27854
3.37387
3.5746
4.14091
6.41509
11.9902
19.8512
22.4087
21.0238
23.5652
22.1328
21.4835
21.2847
21.2919
21.1568
2.9756
3.053
3.09736
3.12298
3.13889
3.17243
3.19969
3.22701
3.27973
3.37652
3.57467
4.08427
6.01984
10.7194
17.6251
18.8923
18.1554
20.4837
19.3513
19.1151
19.0716
19.1209
19.2387
2.9912
3.06671
3.10918
3.13297
3.14888
3.18023
3.20719
3.23078
3.28071
3.37878
3.56857
4.01695
5.65623
9.49351
15.98
16.3464
16.1293
18.0517
17.2717
17.1963
17.277
17.5796
17.8932
3.00817
3.08158
3.12117
3.1432
3.15949
3.18935
3.21477
3.23506
3.28148
3.38016
3.56094
3.95789
5.32675
8.50042
14.8407
14.5224
14.7637
16.2523
15.683
15.7261
16.0083
16.578
16.9969
3.02495
3.09639
3.13179
3.15377
3.16926
3.19739
3.22198
3.23975
3.28245
3.38032
3.54825
3.89946
5.03247
7.69859
14.1253
13.3159
13.9355
14.9587
14.5739
14.7094
15.2104
15.8637
16.2781
3.04282
3.1111
3.14287
3.16492
3.17936
3.20628
3.22971
3.24452
3.28343
3.38044
3.53455
3.84608
4.78961
7.07497
13.6974
12.5492
13.4608
14.04
13.794
14.0552
14.7584
15.4488
16.1531
3.06093
3.12675
3.1526
3.17557
3.18849
3.2143
3.23648
3.24988
3.28493
3.38008
3.52192
3.80391
4.58227
6.5755
13.4573
12.0675
13.1732
13.3914
13.2746
13.5578
14.4597
15.432
15.9884
3.07794
3.14058
3.16298
3.18618
3.19777
3.22302
3.24373
3.25503
3.28656
3.37876
3.51397
3.75976
4.41667
6.21261
13.3317
11.833
12.938
12.9543
12.897
13.3587
14.325
15.4015
15.9796
3.09674
3.15534
3.17223
3.19746
3.20667
3.23056
3.25025
3.2603
3.28867
3.37747
3.50499
3.72475
4.29367
5.94219
13.2562
11.675
12.7157
12.6263
12.8541
13.2625
14.2775
15.5234
16.0845
3.11304
3.16843
3.18222
3.20683
3.21484
3.23892
3.25686
3.26588
3.29114
3.37573
3.49852
3.69266
4.19804
5.76014
13.2045
11.6045
12.4587
12.3916
12.7839
13.2797
14.2488
15.7083
16.3246
3.13011
3.18189
3.19179
3.21717
3.2243
3.24616
3.26283
3.27069
3.29361
3.37454
3.49186
3.66764
4.13729
5.6366
13.1413
11.4791
12.2021
12.2076
12.7343
13.2771
14.2863
15.7186
16.5671
3.14742
3.193
3.2011
3.22769
3.23194
3.25283
3.26887
3.27621
3.2968
3.37261
3.48578
3.6501
4.08522
5.55282
12.9941
11.3753
11.9651
12.1515
12.7855
13.4126
14.3058
15.7398
16.6808
3.1611
3.20752
3.21194
3.23534
3.23989
3.26166
3.27474
3.28085
3.29947
3.37113
3.48245
3.6382
4.06701
5.5233
12.5645
11.1702
11.7318
12.1137
12.9242
13.5726
14.3999
15.7507
16.6401
3.17742
3.20963
3.21968
3.24451
3.25024
3.26553
3.28012
3.28577
3.30291
3.36995
3.47898
3.63217
4.06246
5.51307
12.1592
11.0206
11.6458
12.0788
12.9826
13.7431
14.4612
15.6839
16.8809
3.19052
3.21193
3.23112
3.25017
3.25389
3.2674
3.28039
3.29044
3.30544
3.36881
3.4771
3.62804
4.0592
5.50223
11.7252
10.8797
11.6029
12.0935
13.059
13.9327
14.6705
15.7006
16.8879
3.19932
3.21618
3.23659
3.25379
3.2557
3.27105
3.28105
3.29379
3.30933
3.36756
3.47615
3.62208
4.04875
5.49522
11.3501
10.8849
11.5678
12.0907
13.1449
14.1187
14.8627
15.8506
17.2034
3.19899
3.22123
3.24067
3.25303
3.25753
3.27074
3.28308
3.29374
3.31102
3.36633
3.47499
3.62275
4.05053
5.49362
11.1375
10.8264
11.5776
12.1376
13.2317
14.3313
15.0542
16.1349
17.8137
3.19974
3.22018
3.2434
3.25514
3.26111
3.27109
3.28426
3.29549
3.31149
3.36508
3.47457
3.62182
4.04814
5.49412
10.9238
10.8453
11.5734
12.2365
13.4714
14.5423
15.445
16.4149
18.0719
3.20113
3.22357
3.24198
3.25337
3.2608
3.27329
3.28577
3.29445
3.31318
3.36391
3.47343
3.62168
4.04811
5.49246
10.6998
10.8421
11.6244
12.4461
13.7334
14.819
15.868
17.2091
18.5055
3.20459
3.22138
3.24148
3.25417
3.26298
3.27295
3.28453
3.29484
3.31401
3.36283
3.47348
3.6209
4.04623
5.49336
10.5968
10.859
11.8477
12.7695
14.0651
15.2069
16.1879
17.8086
19.1705
3.20176
3.22219
3.24146
3.25608
3.26367
3.2737
3.2839
3.29626
3.31376
3.36191
3.47269
3.62082
4.04683
5.5001
10.4727
11.0651
12.1615
13.1391
14.4361
15.5326
16.863
18.242
19.5905
3.20212
3.22211
3.24092
3.25412
3.26367
3.2732
3.28386
3.29482
3.31362
3.36132
3.47312
3.62016
4.04695
5.50714
10.3733
11.4748
12.579
13.6
14.812
15.8771
17.2654
18.6907
20.3512
3.20126
3.22559
3.2412
3.25375
3.26396
3.27262
3.28462
3.29456
3.31361
3.36051
3.47279
3.62024
4.04727
5.52011
10.3053
12.0114
12.9654
14.0517
15.261
16.2056
17.4037
19.2118
21.0317
3.20061
3.22326
3.24068
3.2538
3.26153
3.27278
3.28513
3.29562
3.31315
3.36013
3.47298
3.61842
4.04105
5.52944
10.2649
12.5215
13.4143
14.494
15.6174
16.5008
17.6523
19.8269
21.685
3.20223
3.22392
3.24036
3.2531
3.26111
3.27231
3.28307
3.29388
3.31317
3.35975
3.47281
3.61992
4.04685
5.57124
10.2464
13.0506
13.7931
14.8911
15.9671
16.8125
17.7892
19.8524
22.8907
3.20221
3.22358
3.24001
3.25251
3.25996
3.27464
3.28506
3.29548
3.31277
3.35944
3.47354
3.62028
4.05052
5.61859
10.2134
13.4995
14.2367
15.225
16.1793
16.9216
18.2417
19.9573
23.6459
3.20305
3.22275
3.23976
3.25155
3.25966
3.27284
3.28318
3.29387
3.3125
3.35918
3.47491
3.62226
4.06174
5.73895
10.2854
13.7972
14.5822
15.509
16.4404
17.2081
18.3284
20.013
23.5906
3.19827
3.22272
3.24057
3.24936
3.26017
3.27307
3.28431
3.29435
3.31226
3.35903
3.47807
3.6269
4.08742
5.8072
10.4626
14.1089
14.8943
15.7129
16.5672
17.4364
18.7031
20.4032
23.5759
3.19753
3.21841
3.23685
3.24911
3.26049
3.27312
3.28388
3.29466
3.31225
3.358
3.4797
3.62987
4.10878
5.94526
10.7104
14.3136
15.1497
15.851
16.6685
17.7459
19.5127
21.4247
23.8515
3.19537
3.21798
3.2362
3.24797
3.2572
3.27005
3.28309
3.29185
3.31197
3.35781
3.48347
3.63607
4.14642
6.06163
10.9733
14.4321
15.3467
15.9945
16.6762
17.7497
19.7822
21.96
23.9346
3.19494
3.219
3.23444
3.24754
3.25667
3.26927
3.27911
3.29108
3.31147
3.35806
3.48574
3.64095
4.17978
6.23321
11.3353
14.4242
15.4754
16.0511
16.7157
17.7695
20.2367
22.9412
24.5247
3.1931
3.21656
3.23361
3.24911
3.25692
3.26929
3.27779
3.29084
3.30949
3.35712
3.49072
3.65092
4.22927
6.37697
11.6267
14.4299
15.4832
16.0672
16.6855
18.0023
20.5452
23.3333
26.3991
3.19256
3.21611
3.23232
3.24961
3.25713
3.2658
3.27629
3.2878
3.30906
3.3572
3.49364
3.65834
4.26434
6.69568
11.9545
14.4341
15.5153
16.0731
16.8463
18.4592
20.7327
24.5223
28.5169
3.19291
3.21316
3.23195
3.2479
3.25631
3.26537
3.27555
3.28735
3.30651
3.35788
3.49859
3.67121
4.34025
7.06801
12.1768
14.4425
15.5365
16.0775
16.9461
19.1186
21.471
26.6162
30.5103
3.19538
3.21108
3.23211
3.2464
3.25302
3.26701
3.27536
3.28819
3.30602
3.35687
3.5041
3.67875
4.3864
7.50042
12.4137
14.4216
15.5053
16.1215
17.127
19.628
23.0154
27.6632
30.7935
3.19214
3.20794
3.23343
3.24359
3.25123
3.26655
3.27607
3.28831
3.30482
3.35816
3.50739
3.69535
4.47525
7.91729
12.5906
14.3868
15.4972
16.3499
17.8204
21.1109
24.0953
28.0917
31.0559
3.18886
3.20592
3.23102
3.24148
3.24995
3.26515
3.2754
3.28658
3.30477
3.35785
3.51554
3.7022
4.53671
8.50249
12.7301
14.2261
15.475
16.4372
17.8893
21.2144
23.9959
27.9415
31.0441
3.18279
3.20552
3.22801
3.23792
3.24485
3.2627
3.27325
3.28278
3.30403
3.35888
3.51995
3.72164
4.59425
9.06088
12.9002
14.14
15.5066
16.5215
17.9843
21.7835
23.9736
28.7441
31.1123
3.17897
3.19836
3.22537
3.23126
3.24347
3.25793
3.27071
3.28083
3.30303
3.35786
3.52078
3.73245
4.58413
8.83316
12.7693
13.9187
15.3658
16.4912
18.0403
21.525
24.3732
28.0237
31.0517
3.17341
3.19978
3.21906
3.22901
3.2445
3.25102
3.26821
3.27575
3.30412
3.35273
3.51805
3.72794
4.57048
8.94466
12.5922
13.5971
15.1465
16.3114
18.0679
21.2029
23.9055
28.0539
31.013
3.16976
3.19581
3.20955
3.22994
3.24177
3.24851
3.26236
3.27501
3.3027
3.35104
3.51348
3.73319
4.62753
8.88997
12.1706
13.1702
14.6814
16.1124
17.7151
21.0689
24.0467
27.5648
30.7085
3.15784
3.19872
3.20618
3.22725
3.23649
3.24913
3.25351
3.27193
3.2996
3.35185
3.50767
3.72166
4.57568
8.71493
11.582
12.4882
13.9472
15.533
17.4979
20.8822
23.5054
26.3116
28.9345
3.15432
3.19644
3.20724
3.22113
3.22608
3.24539
3.2503
3.26552
3.29451
3.34832
3.50192
3.7217
4.56767
8.37582
11.013
11.9495
13.1819
14.8461
16.9034
19.8578
22.118
24.4736
26.9233
3.15546
3.19021
3.20169
3.21461
3.22069
3.23962
3.25096
3.25971
3.28899
3.34293
3.48992
3.73191
4.63896
8.04006
10.5768
11.5287
12.583
14.1134
16.1473
18.4837
20.378
22.22
24.3091
3.15292
3.18072
3.19446
3.20684
3.20876
3.23245
3.24523
3.25166
3.28193
3.3354
3.47452
3.70869
4.71371
7.79961
10.249
11.2011
12.0912
13.5818
15.2128
17
18.4396
19.8934
21.6152
3.14167
3.16701
3.18518
3.1978
3.20879
3.22512
3.23688
3.24432
3.27491
3.32733
3.46151
3.71094
4.61951
7.64076
9.87955
10.9619
11.6889
12.8723
14.3058
15.5828
17.1266
18.028
19.388
3.12746
3.15272
3.17419
3.18552
3.20058
3.21519
3.22571
3.23952
3.26569
3.31736
3.44169
3.70156
4.58401
7.52264
9.6059
10.8073
11.4567
12.4132
13.4805
14.441
15.5582
17.0738
18.6596
3.10957
3.13499
3.16182
3.17262
3.18981
3.20373
3.21418
3.23069
3.25605
3.30744
3.42836
3.70516
4.69297
7.369
9.37764
10.6296
11.3474
12.0463
12.8316
13.6063
15.1543
16.3545
17.5379
3.08945
3.11487
3.14454
3.157
3.17506
3.18824
3.19977
3.21773
3.24311
3.29467
3.40858
3.69431
4.59158
7.20634
9.14951
10.5238
11.2354
11.8845
12.6246
13.7813
14.6855
16.6671
17.6027
3.07047
3.09614
3.12527
3.14126
3.15911
3.17154
3.1849
3.20359
3.22975
3.28239
3.3862
3.75834
4.70934
7.1589
8.81262
10.3153
11.1318
11.5793
12.2724
13.659
15.1169
17.4404
18.6392
3.04916
3.07537
3.10201
3.12107
3.13841
3.15071
3.16582
3.18456
3.21184
3.26572
3.36579
3.81215
4.82785
6.82631
8.8967
10.2628
11.0501
11.5778
12.4309
14.2099
16.1142
18.1984
18.5401
3.02704
3.05412
3.0785
3.09858
3.11636
3.12945
3.14601
3.16482
3.19357
3.24897
3.34628
3.8815
4.91701
6.96542
8.87191
10.1575
10.7016
11.4434
12.8106
15.33
16.1941
18.4362
19.4455
2.99918
3.02733
3.05012
3.06905
3.08821
3.10279
3.12015
3.13887
3.1689
3.22791
3.30574
3.91928
5.03922
7.2202
8.91245
10.2602
10.6289
11.6211
13.2455
15.7619
17.26
19.1801
19.0656
2.96915
2.99862
3.02095
3.03797
3.05906
3.07551
3.09351
3.11247
3.14394
3.20753
3.24761
4.01357
5.22996
7.32945
9.35436
10.1462
10.6303
11.4696
13.6819
16.5694
16.8808
19.0312
19.7885
2.93124
2.96183
2.98435
2.99989
3.02244
3.04034
3.05847
3.07755
3.11001
3.17572
3.22592
3.90384
5.41335
7.78007
9.29895
10.2376
10.4801
11.7766
14.2518
15.9343
18.117
19.8914
19.9675
2.89136
2.92326
2.94668
2.96201
2.98545
3.00444
3.02286
3.04245
3.0759
3.14219
3.23504
3.92146
5.70595
7.9385
9.36013
10.2238
10.5883
12.208
14.0518
16.9058
18.7036
19.2008
17.7491
2.84181
2.87433
2.89901
2.91519
2.93847
2.95746
2.97565
2.99547
3.02904
3.09473
3.20095
4.03304
6.08503
8.14535
9.2142
9.96489
10.8734
11.9967
14.8115
17.1086
17.5966
16.7513
15.5321
2.79127
2.82487
2.85109
2.86896
2.8917
2.91057
2.92887
2.94925
2.98282
3.04773
3.15544
4.09933
6.32849
8.4224
9.1494
9.81236
10.1358
12.6567
14.8909
15.7937
15.6922
14.731
14.0235
2.72878
2.76245
2.7901
2.8096
2.83107
2.84882
2.86659
2.88687
2.91901
2.98118
3.08552
3.81109
7.16939
8.45574
8.69462
8.99303
10.6017
12.7565
13.8903
14.0985
13.9576
13.2907
13.0341
2.66721
2.7021
2.73089
2.75188
2.77235
2.78971
2.80759
2.82801
2.85863
2.91809
3.01376
3.76222
7.55915
8.27991
8.66043
8.87549
10.786
12.1104
12.5535
12.6842
12.5626
12.373
12.1985
2.59053
2.625
2.65428
2.67575
2.69451
2.71058
2.72782
2.74718
2.77481
2.82995
2.91202
3.87152
7.91244
7.99628
8.2545
8.76415
10.4606
11.1105
11.2404
11.4879
11.4488
11.3857
11.225
2.51833
2.55444
2.58354
2.60515
2.62288
2.63911
2.65669
2.67547
2.7005
2.75179
2.82061
3.94283
7.18797
7.92939
7.86628
8.4599
9.7873
9.91344
10.1263
10.3509
10.3774
10.3766
10.1529
2.42623
2.46097
2.48891
2.50917
2.52469
2.53962
2.55634
2.57311
2.59413
2.63922
2.69566
3.79925
7.01108
7.9185
7.2004
7.93649
8.90648
8.79965
9.07966
9.26296
9.28254
9.25004
9.10907
2.34531
2.3818
2.40813
2.42715
2.44165
2.45708
2.47409
2.49018
2.50837
2.54881
2.59648
3.59313
7.25541
7.53087
6.64535
7.43188
7.94109
7.83296
8.15627
8.28867
8.31539
8.26398
8.12706
2.23643
2.26998
2.29283
2.30856
2.32013
2.33346
2.34869
2.36212
2.37619
2.40879
2.44799
3.27875
6.98907
7.41992
6.28026
6.75323
6.93965
6.88498
7.15683
7.27827
7.295
7.2802
7.07578
2.15179
2.18638
2.2065
2.22008
2.23088
2.24442
2.25943
2.27257
2.28447
2.3129
2.3461
2.98318
6.53328
7.2685
5.70409
6.20865
6.11104
6.17088
6.40997
6.50351
6.52165
6.50404
6.17993
2.02338
2.05308
2.06596
2.07431
2.08114
2.09116
2.10287
2.11281
2.12089
2.14159
2.16563
2.60968
5.9379
7.015
4.92983
5.54612
5.20275
5.28766
5.45347
5.51456
5.52514
5.48217
5.0674
1.95013
1.98008
1.98973
1.99679
2.00165
2.00858
2.01907
2.02806
2.0361
2.0509
2.08055
2.39348
5.46521
6.55414
4.46511
5.0831
4.6465
4.83454
5.0246
5.06258
5.05733
4.98181
4.52549
1.77558
1.78587
1.7864
1.78409
1.78525
1.79057
1.7962
1.8017
1.80236
1.82073
1.81929
2.01617
4.43917
6.31563
3.54874
4.27846
3.80753
3.83882
3.90502
3.9063
3.85111
3.62108
3.08693
3.08952
2.77219
2.58195
2.46409
2.38378
2.3342
2.29829
2.27009
2.253
2.23823
2.23149
2.22849
2.23249
2.24386
2.26737
2.30894
2.37597
2.48108
2.58466
2.7116
2.85502
2.95152
3.09982
3.10101
2.78372
2.59449
2.47794
2.39396
2.34387
2.30639
2.27584
2.25887
2.24189
2.23368
2.22922
2.23284
2.2439
2.26713
2.30832
2.37434
2.47164
2.58464
2.69319
2.83357
2.9259
3.05876
3.11184
2.80344
2.60714
2.48507
2.40756
2.35365
2.313
2.27901
2.26161
2.24343
2.2347
2.22968
2.23309
2.24342
2.2652
2.30417
2.36708
2.45497
2.5764
2.67263
2.82139
2.90201
3.0209
3.12636
2.81599
2.62029
2.50635
2.42398
2.36069
2.31859
2.2853
2.26661
2.24614
2.23675
2.23067
2.23352
2.24287
2.26362
2.30079
2.36204
2.44747
2.56087
2.67516
2.8045
2.88814
3.01382
3.13567
2.83117
2.64588
2.52046
2.43288
2.36576
2.32668
2.28862
2.26833
2.24767
2.23862
2.23134
2.23389
2.24227
2.26264
2.29624
2.35919
2.44107
2.54812
2.66535
2.77454
2.87044
2.98873
3.14457
2.84988
2.65719
2.52623
2.43744
2.37042
2.32927
2.29105
2.27103
2.25038
2.24004
2.23178
2.23387
2.24038
2.26269
2.29209
2.35969
2.43195
2.55023
2.63455
2.77049
2.85038
2.96781
3.15199
2.85611
2.66574
2.5329
2.44681
2.37734
2.33484
2.2958
2.27397
2.25264
2.24155
2.23264
2.23495
2.2392
2.26824
2.29543
2.37225
2.44033
2.55384
2.6391
2.77264
2.85554
2.97064
3.15144
2.85305
2.66306
2.53044
2.44206
2.3718
2.32882
2.29001
2.26784
2.24668
2.23571
2.22701
2.22872
2.23337
2.26035
2.28979
2.36042
2.43529
2.55082
2.64265
2.77406
2.85322
2.97117
2.93804
2.59544
2.45068
2.35217
2.30114
2.265
2.23912
2.21789
2.20646
2.19927
2.21028
2.23462
2.29798
2.40392
2.55635
2.72803
2.98723
3.30506
3.61186
4.09268
4.51231
5.04493
5.52412
2.94985
2.60269
2.45381
2.35726
2.30392
2.267
2.24233
2.22268
2.20865
2.19955
2.20381
2.2165
2.24994
2.3265
2.45693
2.61572
2.85904
3.17529
3.47527
3.94903
4.3342
4.86309
5.31082
2.95166
2.6091
2.45836
2.36209
2.30857
2.27005
2.24635
2.22751
2.21339
2.20249
2.20554
2.21545
2.24536
2.30372
2.41128
2.55358
2.77478
3.07742
3.36403
3.82282
4.16864
4.68509
5.09904
2.9642
2.61753
2.46248
2.3682
2.31139
2.27202
2.24972
2.23214
2.21631
2.20521
2.20674
2.21414
2.23187
2.26929
2.35212
2.47887
2.67581
2.96513
3.23627
3.66218
3.9915
4.47366
4.85986
2.96717
2.62525
2.46872
2.37315
2.31583
2.27541
2.25269
2.23481
2.21913
2.20849
2.20925
2.21563
2.23172
2.26297
2.32299
2.42781
2.59622
2.86905
3.1114
3.50665
3.80994
4.25502
4.66022
2.98048
2.63583
2.47382
2.37996
2.32033
2.27925
2.25683
2.2384
2.22201
2.21275
2.21261
2.21765
2.23182
2.25783
2.30527
2.3921
2.53766
2.78117
2.99994
3.35425
3.65615
4.06127
4.44081
2.9845
2.64448
2.48265
2.38482
2.32477
2.28338
2.259
2.24027
2.22372
2.21572
2.21524
2.21961
2.23149
2.25392
2.29472
2.36553
2.48564
2.6994
2.89388
3.21882
3.49022
3.83239
4.22723
2.99937
2.65759
2.49116
2.39213
2.33012
2.28846
2.26306
2.24368
2.22587
2.21975
2.21782
2.22162
2.23157
2.25249
2.29064
2.35585
2.46216
2.64226
2.81743
3.09938
3.34846
3.6666
4.01128
3.00443
2.6663
2.50054
2.39823
2.33576
2.2943
2.26511
2.24635
2.22885
2.22261
2.22017
2.22328
2.23213
2.2505
2.28513
2.34386
2.43725
2.59444
2.74916
3.00373
3.21525
3.48368
3.8061
3.02114
2.68254
2.51304
2.40628
2.34084
2.29953
2.2693
2.24954
2.23133
2.22518
2.22152
2.22405
2.23178
2.24947
2.28279
2.33888
2.4265
2.56665
2.70354
2.91636
3.09307
3.35576
3.63395
3.02719
2.69122
2.52203
2.41502
2.34813
2.30719
2.27169
2.25303
2.23556
2.22801
2.22369
2.22518
2.23172
2.2478
2.27879
2.33092
2.41215
2.5431
2.66635
2.85235
3.03203
3.22226
3.48428
3.04511
2.71091
2.53565
2.42379
2.35287
2.31184
2.27676
2.25605
2.23861
2.2296
2.22483
2.22578
2.23178
2.2469
2.27633
2.32601
2.40331
2.52764
2.64098
2.80876
2.95625
3.10141
3.35283
3.05259
2.71977
2.54535
2.43536
2.36209
2.31953
2.28051
2.25997
2.24335
2.23231
2.22709
2.22681
2.23201
2.24611
2.27379
2.32098
2.39514
2.51448
2.62132
2.77014
2.91568
3.06075
3.25004
3.06861
2.74159
2.55806
2.44369
2.36712
2.32303
2.2865
2.26269
2.24602
2.23369
2.22822
2.22732
2.23238
2.24554
2.27166
2.31711
2.38937
2.50445
2.60857
2.74527
2.9005
2.99335
3.14715
3.07844
2.75242
2.57009
2.45723
2.37784
2.33053
2.29158
2.26699
2.25043
2.23656
2.23035
2.22811
2.23265
2.24501
2.27022
2.31458
2.38535
2.49659
2.60041
2.73181
2.87212
2.97003
3.12319
2.85897
2.79712
2.85779
2.9403
3.02895
3.06512
3.11361
3.13977
3.1629
3.18192
3.20584
3.24889
3.30908
3.3955
3.52388
3.71728
4.00082
4.34345
4.7003
5.12627
5.50463
5.85014
6.1649
2.84396
2.75272
2.80781
2.90002
2.99573
3.03665
3.09499
3.12975
3.15411
3.17957
3.20343
3.24519
3.30526
3.39132
3.51583
3.70785
3.98389
4.32721
4.70411
5.15466
5.57171
5.93113
6.251
2.83454
2.71713
2.76311
2.86054
2.96727
3.00708
3.07992
3.11749
3.14885
3.17867
3.19816
3.24082
3.30163
3.38803
3.51175
3.70153
3.97607
4.31379
4.70188
5.17866
5.6195
6.00028
6.32284
2.82712
2.67246
2.71166
2.8143
2.92724
2.97558
3.05889
3.09347
3.13703
3.17151
3.1941
3.23526
3.29727
3.38371
3.50606
3.69334
3.96204
4.29426
4.70033
5.19448
5.66846
6.07339
6.41227
2.82697
2.6362
2.65966
2.76523
2.88826
2.93823
3.0304
3.07139
3.11464
3.16077
3.18881
3.22877
3.29205
3.37835
3.50018
3.68366
3.94919
4.27596
4.70161
5.19679
5.70034
6.14439
6.48604
2.83222
2.60251
2.6104
2.714
2.84152
2.89658
3.00237
3.03958
3.09513
3.14153
3.17879
3.2192
3.28558
3.3723
3.49329
3.67433
3.93484
4.25616
4.69496
5.19533
5.70541
6.19943
6.55777
2.83868
2.57282
2.5606
2.65701
2.78973
2.85254
2.9702
3.00837
3.06596
3.1212
3.16078
3.20654
3.27743
3.36433
3.48555
3.66323
3.91996
4.23826
4.68828
5.19548
5.70498
6.2455
6.60743
2.84681
2.54898
2.51325
2.60006
2.73204
2.79982
2.92804
2.96751
3.03499
3.09327
3.14073
3.18995
3.26656
3.3545
3.47556
3.65223
3.90589
4.22235
4.66495
5.18332
5.69978
6.26251
6.6418
2.85592
2.53384
2.47395
2.5456
2.67311
2.74426
2.88894
2.92248
2.99456
3.06099
3.11279
3.16836
3.25241
3.34206
3.46418
3.63876
3.88962
4.2057
4.64428
5.16943
5.68569
6.26638
6.65091
2.86473
2.52337
2.43612
2.48974
2.60575
2.68403
2.83374
2.8678
2.95103
3.0252
3.08181
3.14199
3.23413
3.32643
3.44944
3.62436
3.87527
4.18969
4.6114
5.13392
5.67409
6.26528
6.64745
2.87314
2.5239
2.40999
2.44364
2.5442
2.61831
2.77808
2.80739
2.89545
2.98043
3.04286
3.1119
3.21169
3.30729
3.43334
3.60701
3.85484
4.16808
4.59155
5.09166
5.64039
6.25444
6.63952
2.88061
2.52807
2.38982
2.40179
2.4789
2.55339
2.71246
2.73942
2.83641
2.93131
3.00013
3.07638
3.18406
3.28393