/*--------------------------------*- C++ -*----------------------------------*\
  =========                 |
  \\      /  F ield         | OpenFOAM: The Open Source CFD Toolbox
   \\    /   O peration     | Website:  https://openfoam.org
    \\  /    A nd           | Version:  7
     \\/     M anipulation  |
\*---------------------------------------------------------------------------*/
FoamFile
{
    version     2.0;
    format      ascii;
    class       volScalarField;
    location    "50";
    object      p;
}
// * * * * * * * * * * * * * * * * * * * * * * * * * * * * * * * * * * * * * //

dimensions      [0 2 -2 0 0 0 0];

internalField   nonuniform List<scalar> 
12842
(
1.19818
1.2867
1.399
1.56315
1.74907
1.92334
2.07045
2.18894
2.28818
2.39019
2.53069
2.75559
3.11302
3.64294
4.36647
5.27724
6.34066
7.4991
8.68187
9.81835
10.8502
11.741
12.4773
1.19233
1.30608
1.41529
1.57966
1.74745
1.87001
1.92356
1.89846
1.79814
1.64525
1.48386
1.37546
1.38837
1.58379
2.00173
2.64982
3.50131
4.5006
5.5743
6.64581
7.65071
8.54273
9.30971
1.1927
1.31629
1.42638
1.595
1.74574
1.81859
1.78268
1.62021
1.32931
0.935242
0.492388
0.078976
-0.217517
-0.318521
-0.17167
0.236547
0.879848
1.70016
2.62226
3.56897
4.48024
5.30617
6.04611
1.19603
1.31579
1.43118
1.60831
1.74403
1.77107
1.65109
1.3577
0.883985
0.260188
-0.447436
-1.14288
-1.72101
-2.0899
-2.19131
-2.01291
-1.58614
-0.972889
-0.246075
0.524349
1.29071
2.00548
2.68099
1.19631
1.30793
1.43071
1.62073
1.7437
1.72976
1.5316
1.11368
0.463895
-0.38011
-1.33942
-2.29977
-3.14041
-3.76009
-4.09994
-4.15418
-3.96187
-3.58689
-3.09357
-2.53768
-1.9484
-1.37265
-0.7845
1.19102
1.29586
1.42579
1.63434
1.74693
1.69855
1.42997
0.896696
0.0806349
-0.970611
-2.16624
-3.37413
-4.46099
-5.32013
-5.89626
-6.19327
-6.25729
-6.15041
-5.92175
-5.60829
-5.21958
-4.8041
-4.3254
1.17995
1.28081
1.41726
1.65145
1.75625
1.68269
1.35438
0.719324
-0.248546
-1.48871
-2.90131
-4.33755
-5.65567
-6.74695
-7.56226
-8.11595
-8.45877
-8.64686
-8.70913
-8.66304
-8.49779
-8.26871
-7.92359
1.16527
1.26263
1.40547
1.67077
1.76895
1.68059
1.30479
0.585438
-0.514977
-1.92044
-3.52726
-5.17198
-6.70868
-8.02868
-9.08866
-9.91177
-10.5495
-11.0496
-11.4188
-11.6587
-11.7377
-11.7225
-11.5353
1.143
1.2402
1.39442
1.69602
1.79212
1.70334
1.29728
0.519916
-0.680884
-2.21045
-3.96693
-5.77647
-7.49305
-9.00969
-10.2861
-11.3513
-12.2541
-13.0348
-13.68
-14.1844
-14.4914
-14.696
-14.6536
1.12508
1.21501
1.38937
1.72563
1.82037
1.73575
1.30529
0.48219
-0.800093
-2.42725
-4.30062
-6.24055
-8.1023
-9.78227
-11.2407
-12.5105
-13.6372
-14.6551
-15.5357
-16.271
-16.7866
-17.1927
-17.3191
1.10878
1.18851
1.39014
1.75351
1.84459
1.76238
1.30437
0.435049
-0.928023
-2.64943
-4.63463
-6.70155
-8.70654
-10.5501
-12.19
-13.6614
-15.006
-16.2552
-17.3695
-18.3424
-19.0841
-19.7164
-20.0496
1.09265
1.16108
1.39661
1.77771
1.86424
1.7818
1.29319
0.3772
-1.06566
-2.8782
-4.96981
-7.15968
-9.30397
-11.3082
-13.1248
-14.7901
-16.3431
-17.8157
-19.1615
-20.3788
-21.364
-22.2449
-22.8132
1.07573
1.13347
1.40765
1.79829
1.88174
1.79754
1.27762
0.316485
-1.20312
-3.1024
-5.29344
-7.60067
-9.87791
-12.0374
-14.0238
-15.8744
-17.6272
-19.3195
-20.902
-22.3778
-23.6294
-24.7813
-25.61
1.05731
1.10745
1.42194
1.81589
1.89913
1.81262
1.2627
0.259468
-1.33238
-3.31385
-5.59766
-8.01812
-10.4237
-12.7352
-14.8868
-16.9169
-18.8647
-20.7775
-22.6067
-24.3579
-25.8974
-27.3383
-28.4452
1.0377
1.08517
1.43825
1.8318
1.91798
1.82937
1.2522
0.210711
-1.44814
-3.50806
-5.87965
-8.41277
-10.9466
-13.4126
-15.7314
-17.9418
-20.0857
-22.222
-24.3052
-26.34
-28.1762
-29.9119
-31.303
1.0169
1.06823
1.45548
1.84713
1.93906
1.84916
1.24826
0.172514
-1.54804
-3.68426
-6.14116
-8.79089
-11.4587
-14.0886
-16.584
-18.9816
-21.3242
-23.6818
-26.0141
-28.3248
-30.449
-32.4711
-34.1409
0.995013
1.05737
1.47248
1.86274
1.96233
1.87244
1.25166
0.145589
-1.63146
-3.84291
-6.38424
-9.15741
-11.9684
-14.776
-17.4611
-20.054
-22.5949
-25.1629
-27.7282
-30.2962
-32.6896
-34.9818
-36.9196
0.971911
1.05259
1.48846
1.879
1.9873
1.89908
1.26215
0.12932
-1.69923
-3.98562
-6.6109
-9.5149
-12.4782
-15.4766
-18.363
-21.1568
-23.8918
-26.6527
-29.4265
-32.2225
-34.8584
-37.3941
-39.5849
0.948551
1.05286
1.50288
1.8957
2.01313
1.92842
1.27884
0.122646
-1.75235
-4.11316
-6.82059
-9.86059
-12.9816
-16.1789
-19.273
-22.268
-25.1886
-28.119
-31.0661
-34.0463
-36.8754
-39.5916
-41.9882
0.925843
1.05692
1.51573
1.91253
2.03938
1.96005
1.30112
0.124785
-1.79159
-4.22611
-7.01235
-10.1911
-13.4707
-16.8702
-20.1725
-23.3628
-26.4544
-29.5227
-32.5937
-35.6962
-38.6412
-41.4403
-43.9689
0.904957
1.06333
1.52665
1.92856
2.06491
1.99263
1.32754
0.13435
-1.81785
-4.32446
-7.18403
-10.5012
-13.9361
-17.5362
-21.0431
-24.4188
-27.662
-30.8306
-33.9629
-37.1057
-40.0756
-42.8667
-45.4224
0.886021
1.0715
1.53653
1.94488
2.09147
2.02816
1.35977
0.152431
-1.83052
-4.40846
-7.33452
-10.7891
-14.3737
-18.1719
-21.8789
-25.4284
-28.8011
-32.0297
-35.1479
-38.2262
-41.1235
-43.8019
-46.2191
0.870276
1.07975
1.54353
1.95843
2.11513
2.06206
1.39368
0.175641
-1.83189
-4.47896
-7.46368
-11.0527
-14.7802
-18.7739
-22.6792
-26.3937
-29.8753
-33.1232
-36.1402
-39.0458
-41.7786
-44.2402
-46.4127
0.854575
1.08967
1.55371
1.97894
2.1472
2.1047
1.43614
0.205968
-1.82018
-4.53289
-7.5603
-11.2712
-15.127
-19.3086
-23.4127
-27.2924
-30.8746
-34.115
-36.9705
-39.6338
-42.1342
-44.3096
-46.1039
0.845762
1.10247
1.5677
2.00327
2.18049
2.14433
1.47235
0.226719
-1.81577
-4.58878
-7.64897
-11.4681
-15.441
-19.8011
-24.1042
-28.1507
-31.821
-35.023
-37.6852
-40.0569
-42.2112
-43.9559
-45.2441
0.84525
1.11854
1.58471
2.02886
2.21118
2.17496
1.49131
0.219143
-1.84873
-4.69093
-7.78793
-11.7138
-15.7996
-20.3306
-24.8292
-29.0407
-32.7767
-35.9176
-38.382
-40.3583
-41.9655
-43.1814
-43.9853
0.851042
1.13496
1.60046
2.04975
2.23204
2.189
1.48675
0.180215
-1.91781
-4.83192
-7.96493
-11.99
-16.1806
-20.8729
-25.5658
-29.9523
-33.7564
-36.8445
-39.0992
-40.593
-41.6284
-42.3549
-42.7063
0.857498
1.14891
1.61229
2.06396
2.24245
2.18827
1.46415
0.120587
-2.00683
-4.98961
-8.15255
-12.2654
-16.5503
-21.3943
-26.2822
-30.8645
-34.763
-37.8169
-39.8702
-40.9508
-41.5257
-41.7877
-41.6398
0.86176
1.15931
1.61971
2.0721
2.24468
2.17759
1.43162
0.0525638
-2.09965
-5.14407
-8.32829
-12.5164
-16.8852
-21.8724
-26.9563
-31.76
-35.7946
-38.8452
-40.7779
-41.6055
-41.8222
-41.647
-40.9972
0.863916
1.16692
1.62401
2.07629
2.24219
2.16231
1.39673
-0.0138743
-2.18446
-5.28231
-8.47931
-12.7319
-17.1766
-22.3002
-27.582
-32.6322
-36.8576
-39.9771
-41.9381
-42.6983
-42.6713
-42.1571
-41.1429
0.864965
1.17289
1.6269
2.07891
2.23832
2.14698
1.36513
-0.0720508
-2.25427
-5.3976
-8.60015
-12.9082
-17.4234
-22.6776
-28.1594
-33.4787
-37.9685
-41.2791
-43.4242
-44.3325
-44.2901
-43.6207
-42.5238
0.865693
1.1782
1.62971
2.08161
2.23523
2.13421
1.33959
-0.119474
-2.30752
-5.48997
-8.69295
-13.0495
-17.6318
-23.0107
-28.6955
-34.3044
-39.1585
-42.8264
-45.2803
-46.5961
-46.9677
-46.4442
-45.4189
0.866463
1.18333
1.63308
2.08515
2.2338
2.12474
1.32025
-0.156994
-2.34674
-5.56378
-8.76407
-13.1629
-17.8093
-23.3053
-29.1958
-35.116
-40.4472
-44.6245
-47.4808
-49.5087
-50.8588
-50.9808
-50.2745
0.867388
1.18856
1.63724
2.08962
2.23396
2.11806
1.3057
-0.187438
-2.37658
-5.62568
-8.82185
-13.2569
-17.9642
-23.5663
-29.6645
-35.9167
-41.8089
-46.6517
-50.1991
-53.3236
-56.0486
-57.4253
-57.4862
0.868407
1.19392
1.6421
2.09481
2.23525
2.11317
1.29405
-0.213904
-2.40168
-5.68157
-8.87313
-13.3371
-18.1008
-23.7928
-30.0977
-36.6976
-43.1951
-48.9191
-53.5302
-57.7798
-61.7221
-64.7232
-66.4048
0.869456
1.19946
1.6475
2.1004
2.23714
2.1091
1.28362
-0.238976
-2.42563
-5.73577
-8.92268
-13.4066
-18.2212
-23.9814
-30.4862
-37.4408
-44.5406
-51.2941
-57.194
-62.495
-67.3794
-71.8074
-75.566
0.87043
1.2051
1.6532
2.10613
2.2392
2.10516
1.27333
-0.264216
-2.45052
-5.79038
-8.9725
-13.465
-18.3239
-24.1243
-30.8136
-38.1139
-45.7565
-53.5562
-60.9193
-67.5836
-73.6367
-79.3214
-84.4853
0.871318
1.21086
1.65909
2.11181
2.2412
2.101
1.26261
-0.29035
-2.47715
-5.84583
-9.02284
-13.5106
-18.4067
-24.2131
-31.0603
-38.6763
-46.7833
-55.5365
-64.3652
-72.4981
-80.1444
-87.0856
-93.0331
0.872096
1.21668
1.66503
2.11741
2.24307
2.09651
1.25135
-0.31738
-2.50534
-5.90127
-9.07253
-13.54
-18.4661
-24.2386
-31.2055
-39.0844
-47.607
-57.1207
-67.2993
-76.7399
-85.5807
-93.7262
-100.337
0.872841
1.2226
1.67102
2.12291
2.24483
2.09176
1.2397
-0.344966
-2.53446
-5.95531
-9.12007
-13.5495
-18.4997
-24.1929
-31.2329
-39.2937
-48.2262
-58.1913
-69.3225
-80.0278
-89.7857
-98.6717
-105.781
0.873586
1.22856
1.67702
2.1284
2.24658
2.08692
1.22793
-0.372573
-2.56366
-6.00632
-9.16395
-13.5358
-18.5054
-24.0687
-31.1336
-39.2526
-48.6192
-58.8863
-70.5365
-81.9393
-92.3238
-101.634
-109.031
0.874442
1.23463
1.68309
2.13391
2.2484
2.08213
1.21628
-0.399715
-2.59218
-6.0529
-9.20308
-13.4962
-18.4829
-23.8597
-30.9063
-38.9127
-48.7106
-59.2054
-71.027
-82.5206
-93.1582
-102.565
-110.016
0.875436
1.24076
1.68923
2.13955
2.25038
2.07754
1.20498
-0.425971
-2.61945
-6.0939
-9.23691
-13.4287
-18.4335
-23.56
-30.5572
-38.2435
-48.3839
-59.0567
-70.4039
-81.6358
-92.5154
-101.786
-109.082
0.876666
1.247
1.69552
2.14532
2.25254
2.0732
1.19414
-0.451076
-2.64507
-6.1285
-9.26543
-13.3316
-18.3599
-23.166
-30.0919
-37.2189
-47.436
-58.3359
-68.6952
-79.6368
-90.5298
-99.6333
-106.801
0.878119
1.25331
1.70193
2.15127
2.25492
2.06914
1.18382
-0.474865
-2.66894
-6.15626
-9.28922
-13.2041
-18.2667
-22.6761
-29.4992
-35.9056
-45.9761
-57.0085
-66.6427
-77.423
-87.8903
-96.3193
-103.189
0.879873
1.25973
1.70853
2.15737
2.25749
2.06535
1.17399
-0.497289
-2.69102
-6.17689
-9.30911
-13.0455
-18.1596
-22.091
-28.7488
-34.4974
-44.2044
-54.6287
-64.0812
-74.2773
-83.9502
-91.5255
-97.538
0.881803
1.26618
1.71525
2.16365
2.26024
2.0618
1.16462
-0.518381
-2.71158
-6.19048
-9.32657
-12.8554
-18.0448
-21.4049
-27.8183
-33.3309
-42.1456
-51.0316
-60.3106
-69.5626
-78.1203
-84.9021
-90.0184
0.884061
1.27278
1.72222
2.17009
2.26314
2.05844
1.1556
-0.538313
-2.73102
-6.19737
-9.3434
-12.6344
-17.9259
-20.6199
-26.7774
-32.5184
-39.5981
-46.7682
-55.2829
-63.6386
-70.945
-76.9589
-81.5393
0.885386
1.27889
1.72911
2.17666
2.26635
2.05551
1.14696
-0.557462
-2.75117
-6.2002
-9.3652
-12.3919
-17.8049
-19.7532
-25.7554
-31.9239
-36.7148
-42.2835
-49.5841
-57.2219
-63.5464
-68.8256
-72.8973
0.887606
1.28566
1.737
2.18453
2.2711
2.0541
1.13909
-0.576903
-2.77641
-6.20676
-9.40541
-12.1544
-17.6816
-18.9135
-24.7866
-30.9916
-33.637
-37.8937
-43.9018
-50.5904
-56.079
-60.6552
-64.1056
0.89156
1.29355
1.74685
2.19473
2.27845
2.05485
1.13123
-0.599976
-2.8146
-6.23148
-9.48353
-11.967
-17.5822
-18.3082
-23.8414
-29.355
-30.3026
-33.7842
-38.7423
-44.0134
-48.5831
-52.6345
-55.5466
0.897367
1.30259
1.75876
2.2071
2.28785
2.05635
1.12034
-0.632236
-2.87471
-6.28946
-9.61739
-11.8733
-17.5537
-18.0605
-22.8056
-27.2619
-27.2264
-30.2211
-34.392
-38.1309
-41.8058
-45.6157
-48.1342
0.90417
1.31204
1.77182
2.22052
2.29763
2.05609
1.1027
-0.678878
-2.96333
-6.39083
-9.81562
-11.9036
-17.632
-18.1943
-21.8101
-25.1414
-24.8295
-27.5311
-31.1434
-33.7249
-36.6116
-40.4543
-42.7772
0.911502
1.32147
1.78537
2.23397
2.30638
2.05211
1.07574
-0.743025
-3.08314
-6.53905
-10.0768
-12.0662
-17.8287
-18.6744
-21.1002
-23.3303
-23.2951
-25.8364
-29.1252
-31.11
-33.4003
-37.4398
-39.7886
0.919267
1.33071
1.79896
2.24692
2.31338
2.04382
1.03956
-0.822901
-3.22837
-6.72443
-10.3801
-12.3351
-18.1142
-19.3791
-20.777
-22.0753
-22.6908
-25.1688
-28.2828
-30.1361
-32.0538
-36.2988
-38.8486
0.927312
1.33967
1.81234
2.25896
2.31824
2.0309
0.994258
-0.917468
-3.39532
-6.93969
-10.7086
-12.6777
-18.4517
-20.2128
-20.8863
-21.3435
-22.8546
-25.3508
-28.3119
-30.2613
-32.0146
-36.3402
-39.1201
0.936226
1.34899
1.82622
2.27117
2.32237
2.01546
0.943343
-1.02102
-3.57406
-7.16945
-11.0395
-13.0538
-18.7918
-21.0076
-21.2518
-20.9247
-23.3795
-25.9031
-28.6779
-30.7574
-32.4287
-36.6306
-39.4662
0.945359
1.35816
1.84005
2.28262
2.32493
1.99717
0.888138
-1.129
-3.75366
-7.39442
-11.3407
-13.4122
-19.1055
-21.7576
-21.8882
-21.0563
-24.1579
-26.7129
-29.331
-31.6103
-33.1682
-37.0918
-39.8512
0.954125
1.36655
1.85256
2.292
2.3243
1.97443
0.827599
-1.24116
-3.93139
-7.60925
-11.6038
-13.7279
-19.3447
-22.2462
-22.5979
-21.6243
-25.0004
-27.6016
-30.0004
-32.4599
-33.8033
-37.2804
-39.7781
0.962306
1.37405
1.86352
2.29916
2.3207
1.94816
0.763723
-1.35425
-4.10269
-7.80805
-11.8237
-13.9785
-19.4678
-22.3661
-23.2245
-22.2472
-25.6773
-28.2483
-30.2105
-32.6143
-33.5674
-36.3806
-38.2623
0.970218
1.38115
1.87373
2.3054
2.31601
1.92113
0.700573
-1.4627
-4.26039
-7.98195
-11.9916
-14.1435
-19.4512
-22.1461
-23.6615
-22.7525
-26.0302
-28.4493
-29.7877
-31.8168
-32.2112
-34.1639
-35.0972
0.978177
1.38831
1.88389
2.31158
2.31152
1.89518
0.640766
-1.56321
-4.40087
-8.12718
-12.1067
-14.2194
-19.299
-21.6637
-23.8395
-23.1099
-26.054
-28.1486
-28.8031
-30.213
-30.0626
-30.905
-30.8786
0.98614
1.39556
1.89414
2.31805
2.3077
1.87092
0.584945
-1.65551
-4.52529
-8.24738
-12.1796
-14.2237
-19.0448
-21.0079
-23.7605
-23.3402
-25.8414
-27.4154
-27.4163
-28.1235
-27.4528
-27.1283
-26.3575
0.994114
1.40293
1.90451
2.32474
2.30447
1.84817
0.5326
-1.74103
-4.63727
-8.34988
-12.2266
-14.1842
-18.7384
-20.2739
-23.4884
-23.4225
-25.4055
-26.3717
-25.7914
-25.7985
-24.5101
-23.3523
-22.0046
1.00199
1.41031
1.91489
2.3316
2.30168
1.82655
0.482905
-1.82166
-4.74107
-8.44285
-12.2646
-14.1314
-18.4359
-19.5813
-23.1134
-23.2844
-24.7321
-25.1673
-24.1094
-23.4044
-21.5319
-19.888
-18.1607
1.0098
1.41773
1.92526
2.33844
2.29908
1.80564
0.435063
-1.89902
-4.84016
-8.5327
-12.3066
-14.0897
-18.1819
-19.033
-22.7467
-22.9085
-23.8777
-23.9261
-22.4914
-21.0998
-18.9146
-16.9594
-15.0445
1.01747
1.42509
1.93551
2.34524
2.29655
1.78521
0.388518
-1.97429
-4.93705
-8.62388
-12.3615
-14.0764
-18.0048
-18.693
-22.424
-22.3346
-22.9406
-22.6711
-20.9002
-19.0318
-16.7942
-14.6659
-12.6907
1.02505
1.43244
1.94566
2.35187
2.29396
1.76502
0.342901
-2.04813
-5.03305
-8.7184
-12.4329
-14.0993
-17.9165
-18.5475
-22.0729
-21.6328
-21.9733
-21.3863
-19.2931
-17.2571
-15.1269
-12.976
-11.0265
1.03246
1.4397
1.95561
2.35835
2.29129
1.74503
0.298053
-2.12086
-5.12877
-8.81683
-12.5213
-14.1597
-17.9172
-18.5399
-21.6579
-20.8738
-21.0171
-20.1271
-17.8149
-15.7725
-13.8103
-11.7967
-9.98466
1.03978
1.44692
1.96541
2.36462
2.28848
1.72517
0.253884
-2.19252
-5.22414
-8.91827
-12.6237
-14.2527
-17.9938
-18.6208
-21.219
-20.1032
-20.1212
-18.9754
-16.5894
-14.5496
-12.7657
-11.0027
-9.43872
1.04691
1.45403
1.975
2.37072
2.28558
1.70546
0.210401
-2.26306
-5.31885
-9.02142
-12.7363
-14.3704
-18.1264
-18.7537
-20.7981
-19.3829
-19.3235
-17.979
-15.6178
-13.5628
-11.9437
-10.4782
-9.18368
1.05394
1.46109
1.98443
2.37658
2.28251
1.68585
0.167583
-2.33233
-5.41235
-9.12436
-12.854
-14.5023
-18.2893
-18.9162
-20.4219
-18.7442
-18.6448
-17.1371
-14.8461
-12.8039
-11.3182
-10.0985
-9.00015
1.0608
1.46803
1.99363
2.38226
2.27933
1.66637
0.125458
-2.4002
-5.50411
-9.22539
-12.9719
-14.6381
-18.4566
-19.0843
-20.1308
-18.2781
-18.1098
-16.4406
-14.2328
-12.2562
-10.8663
-9.77204
-8.74328
1.06756
1.47491
2.00266
2.38769
2.27596
1.64696
0.0839967
-2.46649
-5.59347
-9.32261
-13.085
-14.7675
-18.6062
-19.2318
-19.9263
-18.0788
-17.72
-15.8718
-13.7441
-11.8601
-10.5209
-9.41968
-8.35109
1.07413
1.48165
2.01144
2.39291
2.27243
1.62762
0.0432185
-2.53109
-5.67993
-9.41455
-13.1892
-14.8824
-18.7231
-19.3359
-19.6752
-18.0526
-17.4218
-15.4049
-13.3393
-11.5393
-10.1682
-8.94435
-7.78201
1.08061
1.48832
2.02002
2.39782
2.26865
1.60827
0.00309468
-2.59381
-5.76288
-9.49966
-13.2808
-14.9754
-18.7928
-19.3892
-19.3067
-18.0403
-17.1383
-15.0152
-12.9771
-11.1992
-9.69387
-8.30423
-7.05422
1.08689
1.49484
2.02832
2.40247
2.26463
1.58893
-0.0363392
-2.65451
-5.84187
-9.57689
-13.3571
-15.042
-18.8051
-19.4
-18.858
-17.9625
-16.8586
-14.6582
-12.6071
-10.7786
-9.09701
-7.58025
-6.28976
1.09308
1.50126
2.03639
2.40676
2.26028
1.56951
-0.075091
-2.713
-5.91635
-9.64511
-13.4157
-15.0788
-18.7523
-19.3786
-18.3805
-17.7677
-16.5649
-14.2691
-12.1766
-10.2656
-8.46611
-6.89811
-5.61231
1.09905
1.50751
2.04414
2.41072
2.25563
1.55005
-0.113097
-2.76912
-5.98595
-9.70373
-13.4554
-15.0854
-18.6328
-19.3363
-17.9084
-17.4065
-16.2059
-13.824
-11.6733
-9.68576
-7.84076
-6.27295
-5.01473
1.10492
1.51365
2.05161
2.41427
2.25059
1.53048
-0.150339
-2.82267
-6.05021
-9.75202
-13.4752
-15.0622
-18.4468
-19.2799
-17.4723
-16.986
-15.7846
-13.3242
-11.1159
-9.07053
-7.22186
-5.68541
-4.47307
1.11054
1.51959
2.05873
2.41744
2.24519
1.51086
-0.186729
-2.87347
-6.10884
-9.78978
-13.4749
-15.0123
-18.1984
-19.2114
-17.1063
-16.6597
-15.3364
-12.8021
-10.5596
-8.47285
-6.64917
-5.17346
-4.02145
1.11604
1.5254
2.06554
2.42014
2.23933
1.49112
-0.222236
-2.92133
-6.16148
-9.81663
-13.4543
-14.939
-17.8909
-19.1257
-16.801
-16.3811
-14.8497
-12.2824
-10.0357
-7.94456
-6.18417
-4.77873
-3.68233
1.12128
1.53099
2.07194
2.42241
2.23309
1.47134
-0.256759
-2.96609
-6.20793
-9.83267
-13.414
-14.8476
-17.5298
-19.0158
-16.5157
-16.0672
-14.3086
-11.75
-9.51264
-7.47792
-5.80249
-4.46339
-3.41341
1.12637
1.53643
2.07798
2.42415
2.22634
1.45145
-0.290265
-3.00757
-6.24791
-9.83777
-13.3542
-14.7428
-17.1192
-18.8703
-16.2256
-15.6852
-13.7027
-11.1912
-8.98059
-7.04077
-5.464
-4.19513
-3.19233
1.13117
1.54163
2.08358
2.42541
2.21917
1.43153
-0.322651
-3.04564
-6.2813
-9.83222
-13.2756
-14.6307
-16.6658
-18.6761
-15.9344
-15.2024
-13.0686
-10.6411
-8.48557
-6.65557
-5.17793
-3.99602
-3.03882
1.13581
1.54664
2.08878
2.4261
2.21146
1.41152
-0.353888
-3.08012
-6.30787
-9.81601
-13.1783
-14.5164
-16.1783
-18.42
-15.6697
-14.6373
-12.5057
-10.173
-8.08574
-6.34714
-4.96222
-3.86983
-2.95493
1.14011
1.55139
2.09349
2.42625
2.20328
1.3915
-0.383876
-3.1109
-6.32751
-9.78954
-13.0627
-14.4059
-15.6732
-18.0902
-15.456
-14.0841
-12.0337
-9.79133
-7.76269
-6.09409
-4.80208
-3.77949
-2.91061
1.14424
1.55592
2.09776
2.42578
2.19453
1.3714
-0.412587
-3.1378
-6.34005
-9.75286
-12.9285
-14.303
-15.1716
-17.6722
-15.2713
-13.6112
-11.5983
-9.41669
-7.4623
-5.89011
-4.68356
-3.70544
-2.8946
1.14801
1.56016
2.10148
2.42472
2.18527
1.35131
-0.439924
-3.16071
-6.34536
-9.70635
-12.7757
-14.2106
-14.6892
-17.1697
-15.0423
-13.2068
-11.1834
-9.04473
-7.17979
-5.73157
-4.6138
-3.67207
-2.9171
1.15157
1.56415
2.1047
2.42296
2.17539
1.33115
-0.465857
-3.17945
-6.34327
-9.65006
-12.6032
-14.1283
-14.2382
-16.6147
-14.7071
-12.8194
-10.8002
-8.71766
-6.9613
-5.63423
-4.57473
-3.69051
-2.98331
1.15474
1.56781
2.10733
2.42057
2.16495
1.31101
-0.490284
-3.19388
-6.33364
-9.58436
-12.4103
-14.0553
-13.8476
-16.0331
-14.2621
-12.4199
-10.456
-8.45399
-6.81574
-5.57966
-4.56812
-3.75356
-3.08061
1.15766
1.57119
2.10941
2.41741
2.15385
1.29082
-0.513173
-3.20385
-6.31631
-9.50923
-12.1951
-13.9874
-13.5542
-15.4266
-13.7503
-12.0176
-10.1562
-8.23761
-6.71155
-5.52945
-4.5811
-3.8263
-3.19205
1.16016
1.5742
2.11082
2.41354
2.14215
1.27066
-0.534409
-3.20918
-6.29108
-9.42504
-11.9568
-13.9154
-13.3682
-14.7932
-13.2266
-11.6586
-9.89966
-8.05852
-6.62625
-5.50216
-4.60811
-3.90299
-3.31589
1.16237
1.57688
2.11162
2.40885
2.12973
1.25044
-0.554044
-3.20985
-6.25804
-9.33157
-11.6922
-13.8303
-13.2772
-14.1994
-12.7569
-11.3339
-9.64966
-7.89974
-6.55869
-5.51044
-4.66695
-3.9961
-3.44562
1.16426
1.57923
2.11174
2.40336
2.11661
1.23024
-0.571856
-3.20542
-6.21641
-9.22979
-11.4038
-13.7023
-13.2204
-13.7182
-12.3778
-11.0091
-9.3777
-7.76611
-6.51124
-5.52739
-4.73834
-4.09877
-3.57336
1.16585
1.58128
2.11121
2.39684
2.10223
1.20884
-0.589976
-3.19882
-6.16982
-9.11928
-11.0821
-13.5498
-13.241
-13.3726
-12.0739
-10.6972
-9.09801
-7.60782
-6.43006
-5.49448
-4.75061
-4.14856
-3.65691
1.17005
1.58462
2.11092
2.38896
2.08491
1.18349
-0.610802
-3.18913
-6.10959
-9.00441
-10.7701
-13.1814
-12.9363
-12.855
-11.6475
-10.3618
-8.88888
-7.53739
-6.46143
-5.58877
-4.87349
-4.28908
-3.80598
1.17112
1.58446
2.10612
2.37447
2.06057
1.15275
-0.630929
-3.16678
-6.01521
-8.85701
-10.4894
-12.833
-12.7706
-12.6205
-11.3518
-10.1185
-8.73917
-7.46461
-6.43493
-5.58641
-4.88869
-4.32306
-3.85867
1.16945
1.58083
2.09548
2.35206
2.02712
1.11448
-0.652031
-3.13335
-5.89053
-8.67672
-10.1979
-12.3947
-12.4744
-12.3347
-11.0727
-9.88354
-8.59449
-7.38778
-6.38081
-5.54742
-4.87154
-4.32996
-3.88202
1.16513
1.57351
2.0787
2.3215
1.98435
1.06818
-0.675554
-3.09275
-5.7446
-8.46262
-9.84813
-11.7983
-11.91
-11.7959
-10.7011
-9.59577
-8.41743
-7.30265
-6.33756
-5.53644
-4.89463
-4.37892
-3.94299
1.15939
1.56354
2.05721
2.28493
1.93561
1.01905
-0.693904
-3.03521
-5.56575
-8.19272
-9.41224
-11.0705
-11.1579
-11.0797
-10.2115
-9.25696
-8.20823
-7.19495
-6.3071
-5.56982
-4.9768
-4.49421
-4.07893
1.15328
1.55163
2.03212
2.24368
1.88353
0.972004
-0.698585
-2.94772
-5.33497
-7.84107
-8.88177
-10.2637
-10.3282
-10.3
-9.63351
-8.86171
-7.95569
-7.07052
-6.28941
-5.63913
-5.10801
-4.67012
-4.28778
1.1459
1.53721
2.00287
2.19768
1.82887
0.929412
-0.684578
-2.82163
-5.03893
-7.39284
-8.26119
-9.40969
-9.4744
-9.48045
-8.99507
-8.3807
-7.63416
-6.89956
-6.245
-5.69351
-5.23541
-4.85487
-4.51414
1.13655
1.51938
1.96838
2.14566
1.77086
0.891534
-0.650107
-2.65349
-4.67325
-6.84689
-7.56105
-8.51556
-8.59894
-8.60492
-8.27645
-7.80168
-7.22344
-6.63901
-6.11291
-5.66099
-5.28378
-4.96831
-4.67913
1.12414
1.4971
1.92737
2.08654
1.70879
0.858353
-0.594622
-2.44333
-4.24146
-6.21351
-6.79602
-7.58173
-7.6788
-7.67813
-7.45736
-7.12957
-6.69892
-6.25161
-5.84187
-5.48825
-5.19134
-4.93981
-4.70674
1.10854
1.46974
1.87908
2.01942
1.64238
0.830278
-0.517894
-2.19355
-3.75322
-5.5106
-5.98348
-6.61708
-6.70425
-6.70092
-6.55982
-6.34778
-6.04351
-5.71616
-5.41112
-5.14749
-4.91966
-4.72576
-4.54655
1.08899
1.43648
1.82268
1.94413
1.57221
0.80845
-0.419883
-1.9089
-3.22318
-4.7608
-5.14268
-5.63774
-5.70055
-5.67774
-5.60311
-5.46769
-5.26697
-5.0394
-4.82016
-4.62815
-4.464
-4.32475
-4.19288
1.06551
1.39689
1.75788
1.86067
1.49926
0.794105
-0.301706
-1.59699
-2.66973
-3.98924
-4.29491
-4.66477
-4.6952
-4.65109
-4.60765
-4.53211
-4.40274
-4.24945
-4.09883
-3.9641
-3.84748
-3.74652
-3.65181
1.03732
1.35011
1.68421
1.76968
1.42501
0.788159
-0.166327
-1.26851
-2.11369
-3.22233
-3.46385
-3.72727
-3.71657
-3.65693
-3.62729
-3.58037
-3.49764
-3.39478
-3.29031
-3.19645
-3.11795
-3.05083
-2.98514
1.00442
1.29587
1.6019
1.67192
1.35073
0.79028
-0.0193734
-0.936939
-1.57692
-2.48692
-2.6746
-2.85432
-2.80491
-2.72348
-2.69864
-2.66138
-2.60416
-2.53268
-2.46194
-2.39935
-2.34516
-2.29987
-2.25574
0.965951
1.23336
1.51094
1.56861
1.27745
0.798506
0.130899
-0.617578
-1.08083
-1.80936
-1.95244
-2.07095
-1.99454
-1.89619
-1.86402
-1.8275
-1.78286
-1.73236
-1.68214
-1.63749
-1.60114
-1.57209
-1.54093
0.922022
1.16275
1.41212
1.46076
1.20512
0.808734
0.274001
-0.326183
-0.644893
-1.21361
-1.32185
-1.40051
-1.31066
-1.20645
-1.16829
-1.12591
-1.08621
-1.04509
-1.00589
-0.971188
-0.941905
-0.91905
-0.895312
0.871747
1.08356
1.30595
1.34944
1.13264
0.815109
0.398552
-0.0771803
-0.28473
-0.718655
-0.802104
-0.859719
-0.774032
-0.670043
-0.628382
-0.583293
-0.544065
-0.507601
-0.473284
-0.442682
-0.417683
-0.399404
-0.382253
0.81568
0.996614
1.19371
1.23497
1.05746
0.810665
0.493904
0.118315
-0.00996765
-0.335025
-0.402814
-0.450846
-0.384392
-0.289476
-0.249403
-0.204503
-0.167048
-0.13374
-0.103736
-0.0778436
-0.0585084
-0.0471093
-0.0390144
0.753212
0.902045
1.07612
1.11733
0.976322
0.788803
0.552077
0.254264
0.177485
-0.0625804
-0.121339
-0.165425
-0.125312
-0.047674
-0.015217
0.0245694
0.0581324
0.0863749
0.109874
0.127807
0.13815
0.140377
0.138186
0.685489
0.801399
0.954417
0.995771
0.885828
0.744688
0.569265
0.330502
0.283314
0.10772
0.053707
0.0110041
0.0239414
0.0820065
0.105203
0.135913
0.161325
0.181693
0.195629
0.202537
0.201612
0.193327
0.180732
0.612605
0.695587
0.829254
0.869616
0.78377
0.676621
0.546387
0.352539
0.319243
0.191627
0.140415
0.0991748
0.0886135
0.127688
0.141854
0.16301
0.179474
0.19114
0.195334
0.19207
0.182065
0.166505
0.147482
0.536167
0.586754
0.701841
0.738756
0.669908
0.58657
0.488865
0.330258
0.301237
0.209037
0.160754
0.122468
0.0948111
0.117172
0.12438
0.13672
0.144859
0.148293
0.144543
0.134327
0.119162
0.100162
0.0785803
0.457288
0.476693
0.573495
0.604312
0.546814
0.479762
0.405635
0.275988
0.246641
0.180252
0.13584
0.102001
0.0642599
0.0714591
0.073964
0.0802817
0.0822606
0.0794225
0.0702637
0.0560553
0.0385335
0.0187707
-0.00227154
0.377816
0.368276
0.446454
0.469528
0.419321
0.364054
0.307312
0.202796
0.171747
0.123818
0.0839004
0.0548962
0.0140075
0.0089186
0.00880426
0.0113664
0.00921548
0.00224201
-0.00998171
-0.0257148
-0.0432886
-0.0619545
-0.081145
0.299993
0.264292
0.324605
0.338979
0.294412
0.248399
0.205129
0.123107
0.0914789
0.0568526
0.0224717
-0.00148732
-0.0393719
-0.0525861
-0.0547932
-0.0547246
-0.0589512
-0.0676512
-0.0806775
-0.0958333
-0.111641
-0.12786
-0.144023
0.225536
0.169077
0.212502
0.219208
0.179447
0.141864
0.10917
0.0474327
0.0171856
-0.00773795
-0.0360135
-0.055171
-0.0869109
-0.104323
-0.108179
-0.109804
-0.115168
-0.124543
-0.137187
-0.150986
-0.165066
-0.179137
-0.192752
0.158116
0.0868894
0.116108
0.116754
0.0818357
0.0518575
0.0275225
-0.0170409
-0.0441332
-0.062445
-0.0849007
-0.100256
-0.125215
-0.143945
-0.149193
-0.151899
-0.157575
-0.166582
-0.177393
-0.188862
-0.200694
-0.212088
-0.222789
0.099539
0.0225028
0.0410167
0.0379113
0.00789234
-0.0153702
-0.0335899
-0.0647694
-0.0880378
-0.102354
-0.120205
-0.133076
-0.152291
-0.170464
-0.177075
-0.180744
-0.186604
-0.195049
-0.20449
-0.214325
-0.224134
-0.2331
-0.241327
0.0555361
-0.0185378
-0.00603233
-0.0100694
-0.0347365
-0.0518376
-0.0652429
-0.0861234
-0.104694
-0.115745
-0.129131
-0.139315
-0.152978
-0.16816
-0.174712
-0.177888
-0.182236
-0.188175
-0.194857
-0.201855
-0.208428
-0.214115
-0.219142
0.0161551
-0.0401481
-0.0264906
-0.0259009
-0.0425238
-0.0525865
-0.0621101
-0.0773776
-0.0948633
-0.108598
-0.1249
-0.14043
-0.158995
-0.178666
-0.19001
-0.197239
-0.204808
-0.213105
-0.22191
-0.230683
-0.238494
-0.245143
-0.250877
0.0321671
-0.0131876
0.000245475
0.00504126
-0.000545025
0.0020761
0.006057
0.00894939
0.0103199
0.0150727
0.0191132
0.0236007
0.0277922
0.029351
0.0326624
0.0367441
0.0387239
0.0391552
0.0387928
0.0385717
0.0386201
0.0388284
0.0389877
0.896433
0.808363
0.913986
1.0976
1.35566
1.73221
2.27474
3.03025
4.04664
5.35682
6.96518
8.86164
11.0187
13.4045
15.9758
18.6705
21.4061
24.0846
26.6072
28.8897
30.8753
32.5366
33.8937
0.923561
0.886076
0.973114
1.16035
1.41806
1.7831
2.30279
3.02133
3.98353
5.2236
6.75253
8.56408
10.6336
12.9256
15.39
17.9576
20.541
23.0414
25.3635
27.4324
29.2018
30.6611
31.8319
0.956141
0.968027
1.045
1.22825
1.48297
1.83219
2.31929
2.98568
3.87272
5.01532
6.43095
8.11952
10.062
12.2234
14.5508
16.9708
19.3926
21.7164
23.8485
25.7197
27.291
28.5657
29.5666
0.996229
1.04951
1.12756
1.30238
1.55029
1.88046
2.32816
2.93087
3.72619
4.74847
6.02029
7.54868
9.32227
11.311
13.4637
15.7074
17.9513
20.0965
22.0506
23.7465
25.1487
26.2684
27.1279
1.0461
1.12545
1.21372
1.37988
1.61675
1.92426
2.32703
2.8567
3.54668
4.42952
5.53145
6.86638
8.43209
10.2066
12.1457
14.1811
16.226
18.1851
19.9687
21.5106
22.775
23.7742
24.5299
1.10435
1.18964
1.29026
1.44996
1.67195
1.95209
2.30402
2.75218
3.32486
4.05237
4.96265
6.07622
7.4001
8.9234
10.6121
12.408
14.2321
15.9957
17.6133
19.0197
20.177
21.0912
21.7792
1.15977
1.2346
1.34339
1.50074
1.7079
1.95696
2.25198
2.60906
3.05083
3.60426
4.29828
5.15907
6.20374
7.43414
8.83076
10.3494
11.9245
13.4772
14.9287
16.2153
17.2959
18.1653
18.8315
1.19495
1.26482
1.37826
1.53998
1.73828
1.95593
2.1875
2.44044
2.73083
3.08234
3.52538
4.09325
4.81552
5.71023
6.77621
7.98732
9.29417
10.6305
11.9244
13.1115
14.1438
15.0014
15.6801
0.670414
0.25766
0.538998
0.612581
0.854978
1.24936
1.7515
2.6226
3.79731
5.3227
7.17871
9.28033
11.6003
14.1109
16.7785
19.5447
22.3066
24.9499
27.3668
29.4826
31.2592
32.7125
33.8568
0.675804
0.271971
0.545359
0.622452
0.866993
1.25847
1.765
2.63422
3.80936
5.33983
7.20296
9.33349
11.6985
14.2824
17.0507
19.9498
22.8802
25.7268
28.3779
30.7462
32.7813
34.4819
35.8505
0.682678
0.290668
0.555836
0.635086
0.882673
1.2696
1.77783
2.63928
3.80759
5.33298
7.19201
9.33699
11.7324
14.3718
17.2218
20.2316
23.305
26.3271
29.1839
31.7782
34.0497
35.9791
37.5623
0.6907
0.313628
0.572443
0.653038
0.90567
1.28893
1.79895
2.65015
3.8077
5.3207
7.1664
9.31182
11.7218
14.3973
17.3073
20.4026
23.59
26.7543
29.7807
32.5645
35.0381
37.1656
38.9406
0.700105
0.340075
0.595865
0.678131
0.938512
1.32079
1.83459
2.67543
3.8204
5.31619
7.14111
9.27457
11.6837
14.3757
17.3231
20.4778
23.7485
27.0201
30.1763
33.1073
35.7404
38.0265
39.959
0.710923
0.369081
0.625626
0.710607
0.980893
1.36567
1.88628
2.71832
3.85084
5.32685
7.12607
9.2373
11.6317
14.3214
17.2835
20.471
23.7944
27.1376
30.3828
33.4163
36.1622
38.5615
40.6096
0.723367
0.398749
0.658426
0.747498
1.02818
1.41852
1.94964
2.7768
3.90055
5.35943
7.1341
9.21939
11.5905
14.2631
17.2192
20.4135
23.7582
27.1366
30.4294
33.5198
36.3303
38.7946
40.9114
0.737362
0.427762
0.690269
0.784615
1.07399
1.47168
2.0164
2.8437
3.96492
5.41374
7.1713
9.23459
11.5817
14.2293
17.1636
20.3414
23.6775
27.0554
30.3547
33.4567
36.2837
38.7651
40.9055
0.75285
0.457022
0.719351
0.820184
1.11489
1.51993
2.07884
2.90915
4.03196
5.47675
7.22494
9.27297
11.6002
14.2209
17.1246
20.2693
23.5729
26.9203
30.1903
33.264
36.0641
38.519
40.6403
0.769695
0.488247
0.745368
0.854107
1.14933
1.5597
2.13064
2.96381
4.08897
5.53263
7.27684
9.31589
11.6288
14.2253
17.095
20.1972
23.4519
26.746
29.9589
32.9721
35.7095
38.1011
40.1654
0.787973
0.523615
0.768862
0.887489
1.17801
1.58964
2.16777
3.00029
4.12438
5.56529
7.30623
9.33918
11.6415
14.2165
17.0519
20.1063
23.3018
26.5275
29.6638
32.594
35.2434
37.5446
39.5231
0.8077
0.565366
0.791311
0.92267
1.20482
1.61349
2.19287
3.01917
4.1354
5.56708
7.29968
9.32308
11.6127
14.1647
16.9628
19.9639
23.0914
26.2368
29.2828
32.1154
34.6607