/*--------------------------------*- C++ -*----------------------------------*\
  =========                 |
  \\      /  F ield         | OpenFOAM: The Open Source CFD Toolbox
   \\    /   O peration     | Website:  https://openfoam.org
    \\  /    A nd           | Version:  7
     \\/     M anipulation  |
\*---------------------------------------------------------------------------*/
FoamFile
{
    version     2.0;
    format      ascii;
    class       surfaceScalarField;
    location    "50";
    object      phi;
}
// * * * * * * * * * * * * * * * * * * * * * * * * * * * * * * * * * * * * * //

dimensions      [0 3 -1 0 0 0 0];

internalField   nonuniform List<scalar> 
25449
(
67.2659
52.2324
-28.2846
49.91
38.7391
-21.3831
37.2118
28.8723
-16.1741
27.8532
21.596
-12.2374
20.9152
16.2018
-9.2638
15.7471
12.1887
-7.02057
11.8824
9.19483
-5.33014
8.98339
6.95592
-4.05694
6.80343
5.27783
-3.09787
5.16109
4.01703
-2.37469
3.92215
3.06715
-1.82821
2.98682
2.34924
-1.41392
2.28052
1.80474
-1.09844
1.7473
1.39011
-0.856896
1.34501
1.07309
-0.670799
1.0418
0.829651
-0.526434
0.813514
0.641947
-0.413667
0.641859
0.496684
-0.32503
0.512933
0.383947
-0.25502
0.416186
0.296318
-0.199571
0.343629
0.228188
-0.155632
0.289213
0.175314
-0.120898
0.134286
-0.0934938
0.24842
52.011
70.363
38.7623
51.9878
29.0067
38.628
21.7816
28.8211
16.4042
21.5791
12.3856
16.2072
9.37243
12.208
7.10672
9.22163
5.39918
6.98536
4.11012
5.30609
3.13591
4.04135
2.39932
3.08584
1.84248
2.36157
1.42184
1.81075
1.10447
1.39045
0.86539
1.06873
0.685585
0.821752
0.550588
0.63168
0.44939
0.485145
0.373617
0.37209
0.316926
0.28488
0.274509
0.217731
0.166008
0.242787
39.2754
83.6272
29.4595
61.8039
22.1617
45.9258
16.717
34.2658
12.641
25.6551
9.58063
19.2675
7.27694
14.5117
5.53886
10.9597
4.22499
8.29922
3.23042
6.30067
2.477
4.79477
1.90626
3.65657
1.47423
2.79361
1.14762
2.13735
0.901173
1.6369
0.715595
1.25431
0.576151
0.961195
0.471584
0.736246
0.393309
0.56342
0.334791
0.430609
0.291074
0.328595
0.258411
0.250394
0.190408
0.234011
29.2991
93.0298
22.193
68.91
16.8274
51.2915
12.7771
38.3162
9.71703
28.7152
7.40293
21.5816
5.65076
16.2639
4.32226
12.2882
3.31364
9.30784
2.54723
7.06706
1.96481
5.37719
1.52247
4.09891
1.18701
3.12907
0.933128
2.39123
0.74147
1.82856
0.597162
1.39862
0.488775
1.06958
0.407547
0.817473
0.346781
0.624185
0.301377
0.476011
0.267472
0.3625
0.242145
0.27572
0.209331
0.223221
21.7612
99.4543
16.7287
73.9427
12.8311
55.1891
9.83374
41.3135
7.53697
31.0119
5.78138
23.3372
4.44071
17.6045
3.4171
13.3118
2.63527
10.0897
2.03814
7.66419
1.58241
5.83292
1.23509
4.44622
0.971008
3.39316
0.770796
2.59145
0.619498
1.97985
0.505519
1.5126
0.419886
1.15521
0.355689
0.881669
0.307639
0.672234
0.27171
0.511939
0.244853
0.389357
0.224769
0.295803
0.22436
0.20974
16.1936
103.618
12.7193
77.4171
9.91404
57.9944
7.69366
43.5339
5.95617
32.7494
4.60768
24.6857
3.5657
18.6465
2.76268
14.1148
2.14448
10.7079
1.66919
8.13948
1.30444
6.19766
1.02521
4.72545
0.81215
3.60622
0.650202
2.75339
0.527598
2.10246
0.43511
1.60508
0.365533
1.22479
0.313289
0.933912
0.274107
0.711415
0.244738
0.541308
0.222723
0.411371
0.206219
0.312306
0.236746
0.193832
12.1488
106.08
9.83186
79.7342
7.82773
59.9986
6.17076
45.1908
4.83504
34.0851
3.77699
25.7437
2.94691
19.4766
2.29976
14.762
1.79681
11.2108
1.40707
8.52921
1.10603
6.4987
0.87429
4.95719
0.69667
3.78384
0.561175
2.88889
0.45831
2.20532
0.380526
1.68286
0.321866
1.28345
0.277689
0.978086
0.244439
0.744664
0.219413
0.566332
0.200573
0.43021
0.18639
0.326489
0.247436
0.175699
9.24566
107.266
7.78274
81.1972
6.36061
61.4207
5.10706
46.4444
4.0556
35.1366
3.20113
26.5982
2.51835
20.1594
1.97888
15.3014
1.55502
11.6346
1.2237
8.86053
0.965963
6.75644
0.766362
5.15679
0.612625
3.93757
0.49487
3.00664
0.405171
2.29502
0.337125
1.75091
0.285623
1.33495
0.246663
1.01705
0.217183
0.774142
0.194861
0.588653
0.177959
0.447112
0.165155
0.339292
0.25713
0.155461
6.72985
109.562
5.04122
82.886
3.80131
62.6606
2.88526
47.3604
2.2035
35.8183
1.69418
27.1075
1.31064
20.5429
1.02006
15.592
0.798201
11.8565
0.628078
9.03065
0.497425
6.88709
0.39709
5.25712
0.320287
4.01437
0.261762
3.06516
0.217405
2.33937
0.183922
1.78439
0.15869
1.36018
0.139658
1.03608
0.12527
0.788529
0.114361
0.599559
0.106072
0.4554
0.0997728
0.345591
0.261943
0.0949589
4.69859
111.173
3.51818
84.0664
2.65707
63.5217
2.02353
47.994
1.55345
36.2884
1.20315
27.4578
0.93927
20.8068
0.73893
15.7923
0.585228
12.0102
0.466638
9.14923
0.374999
6.97872
0.304178
5.32794
0.249685
4.06886
0.207988
3.10685
0.176295
2.37106
0.152314
1.80837
0.134184
1.37831
0.120435
1.04982
0.109957
0.799006
0.101928
0.607587
0.0957496
0.461578
0.0909915
0.350348
0.265628
0.0873059
3.18204
112.27
2.38283
84.8657
1.80471
64.0999
1.38156
48.4171
1.06887
36.6011
0.836605
27.6901
0.661442
20.9819
0.527956
15.9258
0.424728
12.1134
0.344288
9.22968
0.281535
7.04148
0.23255
5.37692
0.194546
4.10686
0.165258
3.13614
0.142878
2.39345
0.125857
1.82539
0.112907
1.39126
0.102988
1.05974
0.0953242
0.806667
0.0893518
0.613558
0.0846669
0.466262
0.0809952
0.354019
0.268524
0.0780985
2.06111
112.982
1.54522
85.3816
1.17623
64.4689
0.907961
48.6854
0.710908
36.7981
0.565192
27.8358
0.455029
21.0921
0.370483
16.0104
0.304202
12.1797
0.25167
9.2822
0.210037
7.0831
0.176987
5.40997
0.150982
4.13286
0.13069
3.15643
0.115027
2.40911
0.103001
1.83742
0.0937442
1.40051
0.0865391
1.06694
0.0808527
0.812352
0.0763109
0.618098
0.0726537
0.469917
0.0697188
0.356953
0.270891
0.0673508
1.24238
113.412
0.934684
85.6894
0.718114
64.6854
0.562239
48.8412
0.448862
36.9115
0.365609
27.919
0.302313
21.1554
0.253026
16.0597
0.213358
12.2194
0.180909
9.31465
0.154461
7.10955
0.132834
5.43159
0.115398
4.15029
0.101493
3.17033
0.0905691
2.42003
0.0820475
1.84594
0.0753699
1.40719
0.0700508
1.07226
0.0657312
0.816669
0.0621722
0.621655
0.0592144
0.472874
0.0567746
0.359391
0.272908
0.0547563
0.654672
113.635
0.497589
85.8465
0.39008
64.7929
0.31418
48.9171
0.260094
36.9656
0.220953
27.9582
0.190713
21.1856
0.166259
16.0841
0.145327
12.2403
0.126983
9.33299
0.11118
7.12535
0.0975171
5.44525
0.0860149
4.16179
0.0764881
3.17985
0.0687821
2.42773
0.0626183
1.8521
0.057665
1.41214
0.0536015
1.07632
0.0501874
0.820081
0.0472749
0.624565
0.0447723
0.475375
0.0426497
0.361513
0.274705
0.0408511
0.237657
113.708
0.18847
85.8957
0.157886
64.8235
0.13798
48.937
0.125146
36.9784
0.116559
27.9668
0.10919
21.193
0.101893
16.0914
0.0939094
12.2483
0.0852873
9.34162
0.0768039
7.13383
0.0685731
5.45348
0.0610731
4.16929
0.0544522
3.18647
0.0488446
2.43334
0.0441977
1.85675
0.0403453
1.41599
0.037083
1.07958
0.0342469
0.822914
0.0317474
0.627062
0.0295354
0.477585
0.0276136
0.363433
0.276365
0.0259518
-0.0482835
113.676
-0.0225217
85.8699
-0.000812596
64.8018
0.0169188
48.9193
0.0315434
36.9638
0.0431612
27.9551
0.050877
21.1853
0.0548611
16.0874
0.05538
12.2477
0.0530984
9.34389
0.0493622
7.13756
0.044599
5.45824
0.0396034
4.17428
0.034748
3.19132
0.0303783
2.4377
0.0266103
1.86051
0.0233964
1.4192
0.0206099
1.08237
0.0181296
0.825392
0.0158959
0.629294
0.0138826
0.479597
0.0121089
0.365205
0.277919
0.0105536
-0.238928
113.571
-0.162225
85.7932
-0.1061
64.7457
-0.0640479
48.8772
-0.0319576
36.9317
-0.00761771
27.9308
0.00956509
21.1681
0.0205946
16.0764
0.026417
12.2419
0.0280444
9.34227
0.0272073
7.1384
0.024499
5.46095
0.0209276
4.17785
0.0170117
3.19524
0.0132544
2.44146
0.0099036
1.86386
0.00700036
1.4221
0.00447078
1.08489
0.00220994
0.82765
0.000167191
0.631334
-0.00168521
0.481447
-0.00332309
0.366842
0.279369
-0.00477519
-0.358304
113.416
-0.248723
85.6837
-0.17149
64.6684
-0.115036
48.8208
-0.0729154
36.8896
-0.0414119
27.8993
-0.0189279
21.1456
-0.0039852
16.0614
0.00477794
12.2331
0.00851709
9.33852
0.00921545
7.1377
0.00751995
5.46263
0.00457551
4.18079
0.000988059
3.19882
-0.00261874
2.44506
-0.00588832
1.86713
-0.00871294
1.42493
-0.0111331
1.08731
-0.0132589
0.829773
-0.0151524
0.633225
-0.0168491
0.483143
-0.0183318
0.368323
0.280676
-0.0196402
-0.425968
113.23
-0.296655
85.5543
-0.207915
64.5797
-0.144212
48.7571
-0.0974038
36.8428
-0.0627206
27.8646
-0.0379206
21.1208
-0.0213088
16.0448
-0.0112965
12.2231
-0.0067359
9.33397
-0.00548279
7.13645
-0.0069173
5.46407
-0.00981218
4.18368
-0.0135164
3.20252
-0.0173133
2.44886
-0.0207482
1.87056
-0.0236535
1.42783
-0.0260477
1.08971
-0.0280571
0.83178
-0.0297771
0.634943
-0.0312642
0.484628
-0.0325331
0.369591
0.281775
-0.033634
-0.456437
113.023
-0.316881
85.4148
-0.223523
64.4863
-0.157697
48.6912
-0.110021
36.7951
-0.074996
27.8296
-0.0499994
21.0958
-0.0333076
16.0281
-0.0232392
12.2131
-0.0187696
9.32949
-0.0176526
7.13532
-0.0193584
5.46577
-0.0226171
4.18693
-0.0267627
3.20666
-0.0310016
2.45309
-0.0347824
1.87434
-0.0378753
1.43092
-0.0402831
1.09211
-0.0421552
0.833649
-0.0436416
0.636427
-0.0448383
0.485825
-0.0458134
0.370564
0.282586
-0.0466259
-0.462729
112.806
-0.319165
85.2712
-0.225644
64.3928
-0.160993
48.6266
-0.114883
36.749
-0.0813149
27.796
-0.0574629
21.072
-0.0417045
16.0124
-0.0323473
12.2037
-0.0285669
9.32572
-0.028036
7.1348
-0.0303616
5.4681
-0.0342555
4.19083
-0.0390584
3.21146
-0.0439106
2.45794
-0.0481592
1.87859
-0.0515006
1.43426
-0.0539241
1.09453
-0.0556071
0.835329
-0.0567683
0.637587
-0.0575692
0.486623
-0.0581425
0.371137
0.282996
-0.0585561
-0.449819
112.583
-0.307198
85.1286
-0.217101
64.3027
-0.156305
48.5658
-0.113748
36.7064
-0.0830944
27.7654
-0.0614442
21.0503
-0.0473896
15.9983
-0.0392944
12.1956
-0.0366263
9.32304
-0.0369996
7.13517
-0.0401932
5.47128
-0.0449214
4.19555
-0.0505481
3.21708
-0.0561591
2.46355
-0.0609924
1.88341
-0.0646488
1.43792
-0.0670989
1.09698
-0.068547
0.836774
-0.0692918
0.63833
-0.0695873
0.486919
-0.0696593
0.371205
0.282919
-0.069583
-0.422998
112.361
-0.284884
84.9905
-0.200688
64.2185
-0.14554
48.5106
-0.107854
36.6688
-0.0811218
27.7386
-0.0625038
21.0317
-0.0508266
15.9867
-0.0445296
12.1893
-0.0433948
9.32191
-0.0449505
7.13673
-0.0492035
5.47554
-0.0549126
4.20126
-0.0614852
3.22365
-0.0679737
2.47003
-0.0735021
1.88894
-0.077552
1.44197
-0.0800631
1.09949
-0.0812618
0.83797
-0.0815359
0.638603
-0.0812822
0.486664
-0.0808149
0.370736
0.282324
-0.0802227
-0.593098
112.183
-0.458934
84.8563
-0.36027
64.1198
-0.285768
48.4361
-0.229106
36.6121
-0.185696
27.6952
-0.152426
20.9984
-0.127508
15.9617
-0.109436
12.1712
-0.0973608
9.30983
-0.0898071
7.12917
-0.0864071
5.47213
-0.0861953
4.20104
-0.0884734
3.22592
-0.0921437
2.47369
-0.0959703
1.89276
-0.098927
1.44492
-0.100524
1.10108
-0.100745
0.838186
-0.0999378
0.637795
-0.0986018
0.485327
-0.0971226
0.369254
0.280801
-0.0956034
-0.577195
112.014
-0.45022
84.7293
-0.356756
64.0264
-0.28603
48.3654
-0.232113
36.5582
-0.190681
27.6538
-0.158797
20.9665
-0.134856
15.9378
-0.117439
12.1538
-0.105825
9.29822
-0.0985853
7.12193
-0.0953976
5.46895
-0.0953589
4.201
-0.0978106
3.22838
-0.101693
2.47758
-0.105743
1.89681
-0.108812
1.44799
-0.110296
1.10256
-0.110154
0.838041
-0.108785
0.636426
-0.106755
0.483294
-0.104494
0.36699
0.278495
-0.102194
-0.561545
111.855
-0.441326
84.6091
-0.352732
63.9378
-0.285538
48.2982
-0.234184
36.5068
-0.194597
27.6142
-0.164005
20.9359
-0.140971
15.9148
-0.124161
12.137
-0.11296
9.28702
-0.105989
7.11496
-0.102958
5.46591
-0.103044
4.20108
-0.10563
3.23095
-0.109723
2.48166
-0.114074
1.90115
-0.117429
1.45134
-0.119045
1.10417
-0.118819
0.83781
-0.11713
0.634736
-0.114588
0.480749
-0.111761
0.364161
0.275755
-0.109026
-0.546207
111.705
-0.432365
84.4952
-0.34836
63.8538
-0.284492
48.2343
-0.235549
36.4579
-0.197694
27.5764
-0.168312
20.9066
-0.146118
15.8926
-0.129862
12.1207
-0.119025
9.27619
-0.11228
7.10822
-0.109354
5.46299
-0.109517
4.20125
-0.112202
3.23364
-0.116511
2.48597
-0.121252
1.9059
-0.1251
1.45519
-0.127153
1.10622
-0.127197
0.83785
-0.125583
0.633123
-0.123071
0.478235
-0.12039
0.361476
0.273229
-0.11787
-0.53121
111.564
-0.423413
84.3875
-0.343747
63.7741
-0.283025
48.1736
-0.236361
36.4112
-0.20014
27.5401
-0.171894
20.8783
-0.15048
15.8711
-0.134732
12.105
-0.124211
9.26566
-0.117652
7.10165
-0.114782
5.46012
-0.114975
4.20143
-0.11772
3.23638
-0.122246
2.49049
-0.127462
1.9111
-0.132024
1.45974
-0.134876
1.10906
-0.135681
0.83865
-0.134843
0.632283
-0.133193
0.476583
-0.131189
0.359468
0.270855
-0.12882
-0.516574
111.43
-0.414519
84.2854
-0.33897
63.6985
-0.281233
48.1159
-0.236731
36.3667
-0.202055
27.5055
-0.174881
20.8511
-0.154193
15.8505
-0.138911
12.0897
-0.128663
9.25542
-0.122252
7.09525
-0.119389
5.45726
-0.119565
4.20162
-0.122324
3.23914
-0.12706
2.49523
-0.132818
1.91687
-0.13831
1.46523
-0.142362
1.11311
-0.14456
0.840843
-0.145251
0.632976
-0.14477
0.476099
-0.142966
0.357661
0.267886
-0.140003
-0.50231
111.305
-0.40572
84.1888
-0.334086
63.6269
-0.279188
48.061
-0.236739
36.3243
-0.203531
27.4722
-0.17737
20.825
-0.157359
15.8305
-0.142504
12.0748
-0.13249
9.2454
-0.126193
7.08895
-0.123291
5.45435
-0.123401
4.20172
-0.126119
3.24185
-0.131039
2.50014
-0.137377
1.92319
-0.143981
1.47183
-0.149652
1.11877
-0.153855
0.845041
-0.156457
0.635575
-0.156872
0.476512
-0.154988
0.355774
0.26496
-0.152068
-0.488422
111.186
-0.397044
84.0974
-0.329139
63.559
-0.276945
48.0088
-0.236453
36.2838
-0.20464
27.4404
-0.179438
20.7998
-0.16006
15.8111
-0.145597
12.0604
-0.135781
9.23559
-0.129567
7.08274
-0.126581
5.45138
-0.126574
4.20172
-0.129187
3.24447
-0.134239
2.5052
-0.141147
1.93011
-0.148983
1.47967
-0.156636
1.12642
-0.163277
0.851679
-0.168006
0.640306
-0.169938
0.478441
-0.170028
0.355861
0.265155
-0.170229
-0.47491
111.075
-0.38851
84.011
-0.324164
63.4946
-0.27455
47.9592
-0.235925
36.2451
-0.205441
27.4099
-0.18115
20.7755
-0.162364
15.7923
-0.148262
12.0463
-0.13861
9.22594
-0.13245
7.07658
-0.129336
5.44826
-0.129162
4.20154
-0.131592
3.24689
-0.136695
2.51029
-0.144107
1.93751
-0.15319
1.48874
-0.163021
1.13625
-0.172385
0.861039
-0.179957
0.647875
-0.18564
0.484121
-0.191219
0.361438
0.271344
-0.197413
-0.461776
110.97
-0.380136
83.9293
-0.319188
63.4337
-0.27204
47.912
-0.235198
36.2083
-0.205984
27.3807
-0.182559
20.752
-0.164329
15.7741
-0.150557
12.0325
-0.14104
9.21643
-0.134906
7.07045
-0.131622
5.44498
-0.131228
4.20116
-0.133385
3.24906
-0.138421
2.51533
-0.146204
1.9453
-0.156409
1.49895
-0.168354
1.14819
-0.180633
0.873315
-0.192112
0.659357
-0.203582
0.495589
-0.215955
0.37381
0.282868
-0.227484
-0.449017
110.872
-0.371932
83.8523
-0.314235
63.376
-0.269446
47.8672
-0.234311
36.1732
-0.20631
27.3527
-0.183709
20.7294
-0.166002
15.7564
-0.152535
12.019
-0.143124
9.20701
-0.136992
7.06432
-0.133495
5.44148
-0.13283
4.20048
-0.134612
3.25083
-0.139425
2.52014
-0.147374
1.95324
-0.158418
1.50999
-0.172115
1.16188
-0.187212
0.88841
-0.202978
0.67512
-0.219909
0.51252
-0.236706
0.390606
0.296149
-0.249991
-0.436629
110.78
-0.363908
83.7795
-0.309324
63.3214
-0.266795
47.8247
-0.233296
36.1397
-0.206456
27.3259
-0.184643
20.7076
-0.167426
15.7391
-0.15424
12.0058
-0.144909
9.19769
-0.138758
7.05818
-0.135007
5.43774
-0.134017
4.19951
-0.135313
3.25214
-0.13971
2.52454
-0.147542
1.96108
-0.158973
1.52142
-0.173746
1.17666
-0.190979
0.905641
-0.210039
0.694183
-0.229995
0.532473
-0.247414
0.408024
0.307758
-0.259026
-0.424607
110.694
-0.356073
83.711
-0.304472
63.2698
-0.264111
47.7843
-0.23218
36.1077
-0.206453
27.3002
-0.185393
20.6866
-0.16864
15.7224
-0.155711
11.9929
-0.146437
9.18841
-0.140247
7.05199
-0.136202
5.43369
-0.134835
4.19813
-0.135527
3.25283
-0.139286
2.52829
-0.146634
1.96842
-0.157863
1.53264
-0.172833
1.19162
-0.190924
0.923732
-0.211146
0.714401
-0.231016
0.552342
-0.246157
0.423164
0.316082
-0.254482
-0.412947
110.613
-0.348432
83.6465
-0.299694
63.221
-0.261413
47.746
-0.230989
36.0773
-0.206331
27.2755
-0.185992
20.6662
-0.169675
15.7061
-0.156986
11.9802
-0.147746
9.17918
-0.1415
7.04575
-0.137123
5.42932
-0.135328
4.19635
-0.135293
3.25281
-0.138182
2.5312
-0.144606
1.97485
-0.154965
1.54301
-0.16913
1.20579
-0.186485
0.941086
-0.205427
0.733346
-0.222615
0.569528
-0.23403
0.43458
0.320996
-0.238945
-0.401643
110.538
-0.340991
83.5858
-0.295002
63.1751
-0.258721
47.7098
-0.229745
36.0483
-0.206115
27.2519
-0.186467
20.6466
-0.170564
15.6902
-0.158094
11.9677
-0.14887
9.16996
-0.142551
7.03943
-0.137807
5.42458
-0.135536
4.19408
-0.134656
3.25192
-0.136445
2.53298
-0.141466
1.97987
-0.15023
1.55177
-0.162464
1.21802
-0.177446
0.95607
-0.193099
0.748996
-0.206031
0.58246
-0.21339
0.441939
0.32307
-0.215465
-0.390691
110.469
-0.333753
83.5289
-0.290408
63.1317
-0.25605
47.6754
-0.22847
36.0208
-0.205829
27.2292
-0.186845
20.6276
-0.171334
15.6747
-0.159068
11.9555
-0.149839
9.16073
-0.143435
7.03303
-0.138292
5.41945
-0.135503
4.1913
-0.133664
3.2501
-0.134141
2.53347
-0.13728
1.98302
-0.143739
1.55823
-0.152964
1.22725
-0.164084
0.967191
-0.175043
0.759957
-0.183019
0.590435
-0.186499
0.44542
0.322961
-0.186389
-0.380084
110.404
-0.326723
83.4755
-0.285922
63.0909
-0.253417
47.6429
-0.227182
35.9945
-0.205495
27.2076
-0.18715
20.6093
-0.17201
15.6595
-0.159933
11.9434
-0.150683
9.15148
-0.144182
7.02653
-0.138613
5.41388
-0.135269
4.18796
-0.132369
3.2472
-0.131352
2.53245
-0.132177
1.98384
-0.135679
1.56173
-0.141073
1.23265
-0.147327
0.973448
-0.152763
0.765389
-0.155528
0.5932
-0.155362
0.445255
0.321055
-0.153454
-0.369817
110.344
-0.319903
83.4256
-0.281554
63.0525
-0.250836
47.6122
-0.225899
35.9696
-0.205134
27.1868
-0.187404
20.5915
-0.172618
15.6447
-0.160716
11.9315
-0.15143
9.1422
-0.144824
7.01993
-0.138804
5.40787
-0.13488
4.18405
-0.13083
3.24316
-0.128168
2.5298
-0.126366
1.98205
-0.126398
1.56177
-0.127386
1.23364
-0.128268
0.974332
-0.127954
0.765076
-0.125746
0.590992
-0.12231
0.44182
0.317676
-0.118928
-0.359884
110.288
-0.313297
83.379
-0.277313
63.0166
-0.248321
47.5832
-0.224638
35.9459
-0.204764
27.1669
-0.18763
20.5744
-0.17318
15.6303
-0.161441
11.9198
-0.152106
9.13287
-0.145387
7.01321
-0.1389
5.40138
-0.134378
4.17953
-0.12911
3.23789
-0.124678
2.52537
-0.120069
1.97743
-0.116303
1.558
-0.112643
1.22999
-0.108073
0.969766
-0.102232
0.759232
-0.0955824
0.584343
-0.0893443
0.435583
0.313041
-0.0847045
-0.35028
110.238
-0.306907
83.3356
-0.273208
62.9829
-0.245884
47.5559
-0.223416
35.9234
-0.204405
27.1479
-0.187846
20.5578
-0.173719
15.6162
-0.162132
11.9082
-0.152737
9.12348
-0.145899
7.00638
-0.138934
5.39443
-0.133804
4.17441
-0.127287
3.23139
-0.12098
2.51908
-0.113517
1.96998
-0.105806
1.5503
-0.0975477
1.22174
-0.0878053
0.960028
-0.0770092
0.748437
-0.0664245
0.573759
-0.0575885
0.42675
0.306753
-0.051295
-0.340999
110.191
-0.300735
83.2954
-0.269247
62.9514
-0.243537
47.5301
-0.222247
35.9021
-0.204073
27.1297
-0.188073
20.5418
-0.174254
15.6024
-0.16281
11.8967
-0.153345
9.11402
-0.146386
6.99943
-0.138938
5.38698
-0.1332
4.16868
-0.125444
3.22364
-0.11717
2.51081
-0.106945
1.95976
-0.0953995
1.53875
-0.0827672
1.20911
-0.0683415
0.945608
-0.0533509
0.733444
-0.0393841
0.559794
-0.0278808
0.415249
0.298486
-0.019606
-0.332037
110.149
-0.294784
83.2581
-0.265437
62.922
-0.241293
47.506
-0.221146
35.882
-0.203787
27.1124
-0.18833
20.5264
-0.174807
15.5888
-0.163498
11.8854
-0.153956
9.10448
-0.146871
6.99235
-0.138948
5.37907
-0.132604
4.16234
-0.123674
3.21472
-0.113374
2.50052
-0.100583
1.94698
-0.0855629
1.52374
-0.0688201
1.19238
-0.0504257
0.927219
-0.0320298
0.715049
-0.0155064
0.543273
-0.00206752
0.401814
0.288822
0.0076039
-0.323387
110.111
-0.289055
83.2238
-0.261786
62.8948
-0.239163
47.4834
-0.220128
35.863
-0.203562
27.0958
-0.188633
20.5114
-0.175395
15.5756
-0.164214
11.8742
-0.15459
9.09486
-0.147379
6.98514
-0.138996
5.37069
-0.132048
4.1554
-0.122054
3.20474
-0.109728
2.4882
-0.0946179
1.93187
-0.0765165
1.50564
-0.0559512
1.17182
-0.0343855
0.90566
-0.0135196
0.694181
0.00486958
0.524886
0.0195477
0.387139
0.278494
0.0298839
-0.315046
110.077
-0.283551
83.1922
-0.2583
62.8695
-0.237157
47.4622
-0.219207
35.845
-0.203415
27.08
-0.189003
20.497
-0.176042
15.5626
-0.164981
11.8632
-0.155271
9.08516
-0.14793
6.9778
-0.139117
5.36188
-0.131559
4.14786
-0.12066
3.19385
-0.106411
2.47396
-0.0892976
1.91476
-0.0683784
1.48473
-0.0446006
1.14805
-0.0206481
0.881714
0.00188276
0.671651
0.0214667
0.505305
0.0367229
0.371887
0.267915
0.0473098
-0.307008
110.046
-0.278273
83.1635
-0.254985
62.8462
-0.235282
47.4425
-0.218387
35.8281
-0.20335
27.065
-0.189442
20.4831
-0.176752
15.5499
-0.165808
11.8522
-0.156017
9.07537
-0.148545
6.97033
-0.139341
5.35268
-0.131157
4.13968
-0.119517
3.18222
-0.103589
2.45804
-0.0847501
1.89593
-0.0611024
1.46108
-0.0348267
1.12179
-0.00893875
0.855832
0.0147036
0.64801
0.0349069
0.4851
0.0503294
0.35647
0.257294
0.0609551
-0.289013
110.006
-0.256683
83.1312
-0.232771
62.8223
-0.213915
47.4237
-0.1985
35.8127
-0.185152
27.0516
-0.172933
20.4709
-0.161726
15.5387
-0.15201
11.8425
-0.143202
9.06656
-0.136276
6.96341
-0.127799
5.34421
-0.119753
4.13164
-0.108677
3.17115
-0.0931662
2.44254
-0.0745312
1.8773
-0.0510586
1.43761
-0.0259046
1.09664
-0.00128017
0.831216
0.0209725
0.625755
0.0398089
0.466272
0.0539864
0.342282
0.247444
0.063849
-0.229951
109.975
-0.204504
83.1057
-0.185711
62.8035
-0.1709
47.4088
-0.158785
35.8006
-0.148266
27.0411
-0.138592
20.4612
-0.129617
15.5298
-0.121792
11.8347
-0.114673
9.05945
-0.108778
6.95752
-0.102039
5.33748
-0.0950699
4.12468
-0.0859552
3.16205
-0.0734496
2.43004
-0.0578021
1.86166
-0.0388827
1.4187
-0.0191689
1.07694
4.84774e-05
0.812005
0.0176681
0.608139
0.0326832
0.451253
0.0439887
0.330982
0.23946
0.0519672
-0.182927
109.95
-0.162883
83.0857
-0.148102
62.7887
-0.136461
47.3972
-0.126938
35.7911
-0.118652
27.0328
-0.110997
20.4536
-0.103825
15.5226
-0.0975334
11.8284
-0.0917891
9.05371
-0.08682
6.95255
-0.0814924
5.33215
-0.0755692
4.11877
-0.068092
3.15458
-0.0581699
2.42013
-0.0452606
1.84876
-0.0304252
1.40386
-0.0150435
1.06156
-0.000137415
0.797105
0.0136965
0.594309
0.0256343
0.439317
0.0345731
0.32204
0.23308
0.040956
-0.145474
109.93
-0.129659
83.0699
-0.118012
62.7771
-0.108849
47.388
-0.101354
35.7836
-0.0948241
27.0263
-0.0887687
20.4475
-0.0830475
15.5169
-0.0779962
11.8233
-0.0733712
9.04908
-0.0692218
6.94841
-0.0650156
5.32795
-0.0600722
4.11383
-0.0539347
3.14845
-0.0460836
2.41229
-0.0356172
1.83829
-0.0241284
1.39237
-0.012139
1.04958
-0.000532951
0.785505
0.0102196
0.583561
0.019651
0.429886
0.0266993
0.314993
0.228036
0.0317435
-0.115659
109.915
-0.103163
83.0574
-0.0939705
62.7678
-0.0867475
47.3808
-0.0808436
35.7777
-0.0756953
27.0212
-0.0709062
20.4427
-0.0663489
15.5123
-0.0622986
11.8193
-0.058581
9.04537
-0.0551449
6.94497
-0.0518188
5.32463
-0.0477646
4.10978
-0.0427221
3.14341
-0.0364984
2.40607
-0.0281555
1.82996
-0.0192844
1.3835
-0.00995908
1.04027
-0.000886075
0.776436
0.00741415
0.575265
0.014782
0.422521
0.0203317
0.309443
0.224067
0.0243014
-0.0918921
109.902
-0.0819741
83.0475
-0.0746854
62.7606
-0.0689668
47.3751
-0.0642989
35.773
-0.0602302
27.0171
-0.056439
20.4389
-0.0528124
15.5087
-0.0495698
11.816
-0.0465866
9.04239
-0.0437653
6.94215
-0.0411341
5.322
-0.0378613
4.10652
-0.0337252
3.13928
-0.0288013
2.40115
-0.0222823
1.82344
-0.015446
1.37666
-0.00823328
1.03306
-0.00117555
0.769384
0.00519183
0.568903
0.0108316
0.416882
0.0151819
0.305094
0.220944
0.0183053
-0.0731861
109.893
-0.0654501
83.0397
-0.0597742
62.7549
-0.055325
47.3706
-0.0516917
35.7694
-0.0485156
27.0139
-0.0455365
20.436
-0.0426594
15.5058
-0.0400618
11.8134
-0.0376571
9.03999
-0.035337
6.93984
-0.0332227
5.31989
-0.0305691
4.10387
-0.0271421
3.13586
-0.0231679
2.39718
-0.0180141
1.81829
-0.0126181
1.37126
-0.00692593
1.02738
-0.00134258
0.763803
0.00366949
0.563895
0.00804695
0.412508
0.0115147
0.301627
0.218442
0.014018
-0.0579624
109.885
-0.0516866
83.0334
-0.0470819
62.7503
-0.0434815
47.367
-0.0405533
35.7664
-0.0380077
27.0114
-0.0356317
20.4336
-0.0333414
15.5035
-0.0312691
11.8114
-0.02935
9.03807
-0.0274805
6.93797
-0.0258168
5.31823
-0.023736
4.10179
-0.0209915
3.13312
-0.017905
2.3941
-0.0140397
1.81443
-0.00993157
1.36715
-0.00561234
1.02306
-0.0014023
0.759598
0.0023893
0.560108
0.00561355
0.409285
0.00826775
0.298975
0.216484
0.0102259
-0.0488578
109.874
-0.0399173
83.0245
-0.0331075
62.7434
-0.0277196
47.3616
-0.0233472
35.7621
-0.0196195
27.0076
-0.016224
20.4302
-0.0129872
15.5003
-0.00997648
11.8084
-0.00709665
9.03519
-0.00433946
6.93521
-0.00175673
5.31565
0.00119337
4.09885
0.00452892
3.12979
0.00792459
2.39071
0.0121077
1.81026
0.0164255
1.36284
0.0207687
1.01873
0.0248117
0.755557
0.0281782
0.556744
0.0308892
0.406577
0.032974
0.296891
0.215277
0.0341833
-0.0512906
109.862
-0.0419127
83.0151
-0.0347729
62.7363
-0.0291302
47.356
-0.0245563
35.7575
-0.02066
27.0037
-0.0171078
20.4266
-0.0137123
15.4969
-0.0105395
11.8052
-0.0074874
9.03214
-0.00455766
6.93228
-0.0018276
5.31292
0.00129914
4.09573
0.00483537
3.12626
0.00836694
2.38719
0.0127153
1.80591
0.0171834
1.35837
0.0216274
1.01429
0.0257959
0.751392
0.0292601
0.553285
0.0320027
0.403836
0.0341312
0.294765
0.214006
0.0354027
-0.053844
109.85
-0.0440074
83.0052
-0.0365214
62.7288
-0.0306119
47.3501
-0.0258273
35.7527
-0.0217552
26.9997
-0.0180399
20.4229
-0.0144791
15.4934
-0.0111367
11.8018
-0.00790467
9.02892
-0.00479394
6.92918
-0.00190845
5.31004
0.00139179
4.09243
0.00515011
3.12251
0.0088445
2.3835
0.0133375
1.80142
0.0179579
1.35375
0.0224939
1.00976
0.0267646
0.747122
0.0303062
0.549746
0.0330539
0.401092
0.0351772
0.292642
0.212702
0.0364825
-0.056524
109.837
-0.0462063
82.9949
-0.0383572
62.721
-0.0321683
47.3439
-0.0271633
35.7477
-0.0229078
26.9954
-0.0190225
20.419
-0.0152898
15.4896
-0.0117701
11.7983
-0.00835018
9.0255
-0.00505035
6.92588
-0.00200234
5.30699
0.00146874
4.08897
0.00547122
3.11851
0.00935053
2.37962
0.0139686
1.79681
0.018734
1.34898
0.0233487
1.00515
0.0276824
0.742791
0.0312716
0.546162
0.0339885
0.398376
0.0360534
0.29058
0.211401
0.0373557
-0.0593367
109.824
-0.0485146
82.9841
-0.040285
62.7127
-0.0338031
47.3374
-0.0285677
35.7425
-0.0241207
26.991
-0.0200585
20.415
-0.0161468
15.4857
-0.0124419
11.7946
-0.00882577
9.02189
-0.00532899
6.92238
-0.00211189
5.30378
0.00153105
4.08533
0.00578635
3.11426
0.00986982
2.37554
0.0146027
1.79208
0.0194973
1.34409
0.024179
1.00047
0.0285306
0.73844
0.0321364
0.542559
0.0347833
0.395733
0.0367508
0.288613
0.21014
0.0380126
-0.0622894
109.81
-0.050938
82.9728
-0.042309
62.7041
-0.0355203
47.3306
-0.0300439
35.737
-0.0253971
26.9863
-0.0211506
20.4107
-0.0170527
15.4816
-0.0131545
11.7907
-0.00933335
9.01807
-0.00563152
6.91868
-0.0022387
5.30039
0.00158208
4.08152
0.00608593
3.10976
0.0103914
2.37124
0.0152355
1.78724
0.0202371
1.33909
0.0249773
0.995739
0.0293052
0.734115
0.0329012
0.538968
0.0354472
0.393189
0.0373099
0.286754
0.208954
0.0384975
-0.0653881
109.795
-0.053482
82.9608
-0.0444344
62.695
-0.0373241
47.3235
-0.0315955
35.7313
-0.0267404
26.9815
-0.022302
20.4063
-0.0180102
15.4773
-0.01391
11.7866
-0.00987446
9.01403
-0.00595884
6.91477
-0.00238296
5.29681
0.0016266
4.07751
0.00637533
3.10502
0.010917
2.3667
0.0158674
1.7823
0.0209511
1.33401
0.0257414
0.990951
0.0300176
0.729838
0.0335716
0.535417
0.0360125
0.390752
0.037779
0.284988
0.207858
0.038877
-0.068641
109.78
-0.0561526
82.9484
-0.0466658
62.6856
-0.0392189
47.316
-0.0332265
35.7253
-0.0281537
26.9764
-0.0235154
20.4016
-0.019022
15.4728
-0.0147106
11.7823
-0.0104504
9.00978
-0.00631132
6.91063
-0.00254358
5.29305
0.00167084
4.0733
0.0066649
3.10003
0.0114476
2.36193
0.0164982
1.77725
0.0216439
1.32886
0.026475
0.986126
0.0306854
0.72563
0.0341619
0.531947
0.0365178
0.388397
0.0381959
0.283313
0.206838
0.0392168
-0.0720551
109.764
-0.0589564
82.9352
-0.049009
62.6756
-0.0412091
47.3083
-0.0349406
35.719
-0.0296407
26.9711
-0.0247942
20.3968
-0.0200905
15.4681
-0.0155585
11.7778
-0.0110626
9.00528
-0.006689
6.90626
-0.00271869
5.28908
0.00172173
4.06887
0.00695756
3.0948
0.0119751
2.35691
0.0171249
1.7721
0.0223218
1.32367
0.0271839
0.981266
0.0313203
0.721492
0.0347067
0.528562
0.0370002
0.386109
0.0385962
0.281718
0.20587
0.0395667
-0.0756387
109.746
-0.0618996
82.9215
-0.0514692
62.6652
-0.0432994
47.3001
-0.0367422
35.7125
-0.0312052
26.9656
-0.0261416
20.3917
-0.0212189
15.4632
-0.0164558
11.773
-0.0117123
9.00054
-0.00709209
6.90164
-0.00290664
5.2849
0.00178486
4.06418
0.00725157
3.08934
0.0124916
2.35168
0.0177469
1.76685
0.0229887
1.31843
0.027868
0.976393
0.0319283
0.717435
0.0352386
0.525259
0.0374818
0.383867
0.0390151
0.280188
0.204931
0.0399549
-0.0794001
109.729
-0.0649894
82.9071
-0.0540525
62.6542
-0.0454951
47.2915
-0.0386356
35.7056
-0.0328508
26.9598
-0.0275611
20.3864
-0.0224099
15.4581
-0.0174051
11.768
-0.0124014
8.99554
-0.00752109
6.89676
-0.00310637
5.28049
0.00186262
4.05922
0.00754551
3.08366
0.012999
2.34623
0.0183672
1.76149
0.0236444
1.31315
0.0285223
0.971516
0.0325192
0.713437
0.0357645
0.522016
0.0379675
0.381669
0.0394578
0.278699
0.204011
0.0403806
-0.0833486
109.71
-0.0682333
82.892
-0.0567647
62.6428
-0.0478012
47.2825
-0.0406254
35.6984
-0.0345818
26.9537
-0.0290562
20.3809
-0.0236669
15.4527
-0.018409
11.7627
-0.0131318
8.99027
-0.007977
6.89161
-0.00331743
5.27583
0.00195328
4.05395
0.00783859
3.07778
0.013506
2.34057
0.0189885
1.75601
0.0242876
1.30786
0.0291522
0.966657
0.0331036
0.709489
0.0362786
0.518847
0.0384485
0.3795
0.0399054
0.277246
0.2031
0.0408171
-0.0874928
109.69
-0.0716388
82.8761
-0.0596127
62.6307
-0.0502233
47.2732
-0.0427163
35.6909
-0.0364024
26.9474
-0.0306308
20.3752
-0.0249933
15.447
-0.0194704
11.7572
-0.0139061
8.98471
-0.00846124
6.88616
-0.0035404
5.27091
0.00205197
4.04836
0.00813206
3.0717
0.0140207
2.33468
0.0196115
1.75042
0.0249206
1.30255
0.0297739
0.961804
0.0336852
0.705577
0.036776
0.515758
0.0389132
0.377369
0.0403304
0.275829
0.202208
0.0412246
-0.0918429
109.669
-0.0752138
82.8595
-0.0626029
62.6181
-0.0527673
47.2633
-0.0449135
35.6831
-0.038317
26.9408
-0.032289
20.3691
-0.0263924
15.4411
-0.0205923
11.7514
-0.0147267
8.97884
-0.00897567
6.88041
-0.00377698
5.26572
0.00215251
4.04244
0.00842322
3.06544
0.0145426
2.32857
0.0202352
1.74474
0.0255506
1.29724
0.030397
0.956964
0.034255
0.701723
0.0372526
0.512767
0.0393455
0.375276
0.0407081