/*--------------------------------*- C++ -*----------------------------------*\
  =========                 |
  \\      /  F ield         | OpenFOAM: The Open Source CFD Toolbox
   \\    /   O peration     | Website:  https://openfoam.org
    \\  /    A nd           | Version:  7
     \\/     M anipulation  |
\*---------------------------------------------------------------------------*/
FoamFile
{
    version     2.0;
    format      ascii;
    class       volVectorField;
    location    "50";
    object      U;
}
// * * * * * * * * * * * * * * * * * * * * * * * * * * * * * * * * * * * * * //

dimensions      [0 1 -1 0 0 0 0];

internalField   nonuniform List<vector> 
12842
(
(15.2173 3.51449 -4.65258e-18)
(15.2149 3.51028 -1.00901e-19)
(15.2125 3.50828 -5.52235e-21)
(15.2088 3.50735 2.56949e-21)
(15.2039 3.50845 3.42781e-19)
(15.1981 3.51398 0)
(15.191 3.52681 0)
(15.181 3.55005 1.64275e-19)
(15.1661 3.58693 -1.50308e-18)
(15.1435 3.64052 -3.78443e-20)
(15.1104 3.71347 -6.6212e-19)
(15.0638 3.80779 3.02482e-20)
(15.0015 3.92459 -3.63229e-19)
(14.922 4.06377 -2.64031e-20)
(14.8249 4.22384 4.42054e-20)
(14.7113 4.40156 9.32819e-20)
(14.5837 4.5919 4.36872e-20)
(14.4461 4.78827 0)
(14.3035 4.98318 2.13896e-21)
(14.1613 5.16928 6.71481e-21)
(14.0249 5.34008 7.19325e-21)
(13.8991 5.49214 -1.45085e-20)
(13.7867 5.61934 1.90903e-20)
(15.2152 3.51562 3.53082e-18)
(15.2117 3.51222 0)
(15.2092 3.51103 -3.52533e-19)
(15.206 3.51005 -1.30218e-19)
(15.2032 3.51073 -3.08231e-19)
(15.2018 3.51585 0)
(15.2017 3.5288 1.96625e-18)
(15.2015 3.55325 0)
(15.1988 3.59299 2.62795e-18)
(15.1907 3.65146 2.30962e-19)
(15.1736 3.73146 1.23543e-18)
(15.1439 3.83491 1.66015e-18)
(15.0987 3.96258 3.52872e-19)
(15.0356 4.1138 -7.14169e-19)
(14.954 4.28642 0)
(14.8544 4.47651 -1.0821e-19)
(14.7389 4.67838 -8.08013e-20)
(14.6111 4.88484 2.02867e-19)
(14.4756 5.0879 0)
(14.3379 5.27994 -1.70586e-20)
(14.2034 5.45427 4.16793e-20)
(14.0772 5.60822 1.83301e-20)
(13.9638 5.73323 -4.96215e-22)
(15.2124 3.51712 0)
(15.2088 3.51477 0)
(15.2061 3.51398 1.46649e-20)
(15.2029 3.51222 4.71444e-19)
(15.2016 3.51152 0)
(15.2041 3.51501 0)
(15.2104 3.52664 5.94291e-19)
(15.2193 3.5507 -2.56109e-18)
(15.2284 3.59167 -1.20101e-18)
(15.2342 3.65342 -1.24485e-18)
(15.2324 3.73895 -2.34958e-18)
(15.2189 3.85013 -1.63678e-18)
(15.1898 3.98738 -3.20577e-19)
(15.1425 4.14948 1.11921e-18)
(15.0758 4.33361 0)
(14.99 4.53522 1.47713e-19)
(14.8871 4.74803 -1.89334e-19)
(14.7702 4.96436 -1.503e-19)
(14.6437 5.17576 -3.32725e-19)
(14.5127 5.37438 1.98173e-19)
(14.3829 5.55323 -4.1071e-20)
(14.2592 5.71052 0)
(14.1476 5.83493 -7.84981e-21)
(15.2094 3.51936 8.71014e-19)
(15.2065 3.51803 -3.80368e-19)
(15.2031 3.51732 3.67464e-19)
(15.1993 3.51436 -1.16832e-18)
(15.1992 3.51169 2.67189e-19)
(15.205 3.51268 -2.22231e-18)
(15.2172 3.52189 -1.37957e-20)
(15.2347 3.54424 2.54401e-18)
(15.2552 3.58497 4.84978e-18)
(15.2744 3.6485 -3.07677e-18)
(15.2875 3.73802 5.73124e-18)
(15.2895 3.85543 -6.0619e-19)
(15.276 4.00081 7.89225e-19)
(15.2439 4.17241 2.3561e-18)
(15.1919 4.36678 -3.35383e-19)
(15.1203 4.57879 4.32086e-19)
(15.0308 4.80166 1.31622e-19)
(14.9262 5.02734 3.90675e-19)
(14.8104 5.247 1.92635e-20)
(14.6882 5.45263 2.41351e-19)
(14.5653 5.63688 7.34346e-20)
(14.4463 5.79886 1.06755e-19)
(14.3387 5.92439 -1.49579e-19)
(15.2065 3.52249 8.05233e-18)
(15.2048 3.52187 0)
(15.2002 3.5211 2.15972e-20)
(15.1953 3.51677 3.03413e-19)
(15.196 3.51174 -8.76693e-20)
(15.2046 3.50958 6.3013e-18)
(15.2221 3.51543 5.14373e-19)
(15.2477 3.53486 -7.16377e-18)
(15.279 3.57398 -5.53789e-18)
(15.3113 3.63782 3.89625e-18)
(15.3388 3.72988 -6.20293e-18)
(15.3559 3.85211 -4.32794e-18)
(15.3578 4.00429 9.28069e-19)
(15.3409 4.18409 -5.07019e-18)
(15.3038 4.38739 -1.80661e-18)
(15.2469 4.6085 1.18425e-18)
(15.1717 4.8403 0)
(15.0807 5.07448 -3.90066e-19)
(14.9772 5.30203 0)
(14.8655 5.51486 1.13937e-19)
(14.7514 5.70523 1.50358e-19)
(14.639 5.8731 -1.3326e-19)
(14.5373 6.00132 -3.06924e-20)
(15.2039 3.52644 -6.62318e-18)
(15.2034 3.52614 0)
(15.1974 3.52528 0)
(15.191 3.51953 8.30593e-19)
(15.1922 3.51198 -1.88309e-18)
(15.203 3.50617 -3.71724e-18)
(15.2252 3.50792 -8.18748e-18)
(15.2585 3.52332 7.9145e-18)
(15.3002 3.55954 0)
(15.345 3.62225 5.13898e-18)
(15.3865 3.71533 5.60878e-18)
(15.4185 3.8409 2.17529e-18)
(15.4354 3.99844 0)
(15.4336 4.18508 2.70732e-18)
(15.4117 4.39592 1.54101e-18)
(15.37 4.62473 -8.56192e-19)
(15.31 4.86412 -2.16911e-19)
(15.2338 5.1058 1.51798e-18)
(15.1441 5.3407 0)
(15.0446 5.56086 -6.59357e-19)
(14.9412 5.75796 2.21879e-19)
(14.8372 5.93283 7.26276e-19)
(14.7432 6.06507 -1.53369e-19)
(15.2017 3.53097 6.02026e-19)
(15.2024 3.53065 0)
(15.1947 3.52977 0)
(15.1866 3.52269 -8.28391e-19)
(15.1877 3.51262 2.35119e-18)
(15.1996 3.50287 -6.52085e-19)
(15.2255 3.49988 4.8319e-18)
(15.2651 3.51017 6.3234e-19)
(15.3164 3.54211 -8.29554e-19)
(15.3731 3.60217 -5.83315e-18)
(15.4282 3.69469 -6.2262e-19)
(15.4752 3.82211 4.3416e-18)
(15.5075 3.98361 0)
(15.5212 4.17572 -3.36242e-18)
(15.5146 4.39274 2.7753e-19)
(15.4883 4.62785 -3.58403e-19)
(15.4439 4.8735 1.06645e-18)
(15.3832 5.1216 -8.86277e-19)
(15.3085 5.36321 -1.18699e-18)
(15.2229 5.59061 -2.892e-19)
(15.132 5.79482 3.87696e-20)
(15.0384 5.97748 -4.38722e-19)
(14.9539 6.11468 -2.80493e-19)
(15.2002 3.53597 0)
(15.2017 3.53539 4.17185e-20)
(15.1922 3.53444 -3.25648e-19)
(15.1825 3.52602 -1.44356e-19)
(15.1837 3.51341 -2.72088e-18)
(15.1968 3.49952 7.18323e-19)
(15.2267 3.49146 -9.35821e-20)
(15.2726 3.49603 -5.08644e-18)
(15.3329 3.52287 0)
(15.4004 3.57924 -7.226e-18)
(15.4677 3.66979 5.86296e-19)
(15.528 3.79744 2.62047e-19)
(15.5747 3.96113 0)
(15.6035 4.1569 3.3122e-18)
(15.6127 4.37819 -2.48522e-18)
(15.6029 4.61766 0)
(15.5757 4.86772 -1.05621e-18)
(15.5324 5.1208 0)
(15.4746 5.36828 9.74516e-19)
(15.4048 5.60285 0)
(15.3284 5.81461 -4.54295e-19)
(15.247 6.00631 2.78871e-19)
(15.1731 6.1496 3.77696e-19)
(15.199 3.54124 0)
(15.2011 3.5398 0)
(15.1894 3.53935 -7.17398e-20)
(15.177 3.53052 -8.79421e-20)
(15.1761 3.51649 2.85766e-18)
(15.1875 3.49959 4.22771e-18)
(15.218 3.48703 0)
(15.2673 3.48564 4.79326e-18)
(15.335 3.50627 0)
(15.4131 3.55722 1.47528e-17)
(15.4932 3.64411 5.33016e-18)
(15.5674 3.7706 -3.65129e-18)
(15.6275 3.93568 -3.40823e-19)
(15.6685 4.13488 0)
(15.6887 4.36066 2.62397e-18)
(15.6894 4.60469 1.95545e-18)
(15.6736 4.85884 -1.73674e-19)
(15.6433 5.11568 1.30941e-18)
(15.6002 5.36682 1.17594e-18)
(15.5459 5.60574 0)
(15.4846 5.82178 2.88035e-19)
(15.4168 6.01964 2.21422e-20)
(15.3544 6.16739 -2.18541e-19)
(15.1978 3.54726 1.05723e-19)
(15.2009 3.54426 -4.9179e-19)
(15.1871 3.54377 3.04545e-19)
(15.1729 3.53403 0)
(15.1711 3.51828 7.88807e-20)
(15.182 3.49856 2.55358e-19)
(15.2139 3.48232 -5.54995e-18)
(15.2665 3.47646 0)
(15.3399 3.49275 0)
(15.4256 3.54014 -7.46203e-18)
(15.5145 3.62456 -5.67695e-18)
(15.5984 3.75022 -1.37586e-19)
(15.6685 3.916 3.40125e-18)
(15.7196 4.11714 -1.16515e-19)
(15.7496 4.34535 -3.63703e-19)
(15.7605 4.5917 3.72745e-19)
(15.7556 4.84772 -1.29115e-18)
(15.7375 5.10635 -1.21173e-18)
(15.7075 5.3594 -1.33801e-18)
(15.6667 5.60115 -9.82585e-19)
(15.6189 5.82007 3.19109e-19)
(15.563 6.0227 -1.42405e-18)
(15.5123 6.17395 2.57462e-19)
(15.1971 3.55346 -7.18639e-18)
(15.2009 3.5486 6.70043e-19)
(15.185 3.54812 -1.4297e-20)
(15.1692 3.53746 3.25084e-19)
(15.1666 3.51992 -5.9844e-20)
(15.1768 3.49733 -4.42836e-18)
(15.21 3.47731 1.07503e-17)
(15.2654 3.46696 3.5464e-19)
(15.3442 3.47895 -2.73101e-19)
(15.4369 3.52294 -8.21131e-18)
(15.534 3.60503 2.02655e-19)
(15.6274 3.72988 -4.76981e-18)
(15.7073 3.8962 -3.04065e-18)
(15.7684 4.09889 0)
(15.8084 4.32888 3.03649e-18)
(15.8297 4.57661 -4.19103e-18)
(15.8363 4.83337 -2.93996e-19)
(15.831 5.09252 1.23642e-18)
(15.8152 5.34619 -1.28759e-20)
(15.7893 5.58962 1.24273e-18)
(15.7568 5.81033 0)
(15.7148 6.01672 4.32751e-19)
(15.6778 6.17072 0)
(15.1969 3.55965 1.09168e-17)
(15.2009 3.55273 2.98783e-19)
(15.183 3.55239 -1.6547e-20)
(15.1659 3.5409 -5.2255e-19)
(15.1624 3.52166 1.61436e-18)
(15.1718 3.4963 -1.11992e-19)
(15.2061 3.47256 -5.57488e-18)
(15.2642 3.4577 1.09094e-19)
(15.3479 3.46533 -3.27604e-19)
(15.4473 3.50586 8.48687e-18)
(15.5522 3.58548 0)
(15.6548 3.70935 4.37138e-18)
(15.7443 3.87596 3.03402e-19)
(15.8154 4.07985 -1.38844e-19)
(15.8654 4.31116 -3.15151e-18)
(15.8973 4.55956 3.56691e-20)
(15.9155 4.81603 1.17722e-18)
(15.9237 5.07445 -2.03707e-18)
(15.923 5.32727 0)
(15.9133 5.57089 -8.6479e-19)
(15.8977 5.79187 1.1495e-18)
(15.8714 6.00061 0)
(15.8497 6.15621 -6.61705e-19)
(15.197 3.5657 -3.6513e-18)
(15.201 3.55659 -1.13334e-19)
(15.181 3.55655 -2.04623e-20)
(15.1628 3.54435 2.46654e-19)
(15.1583 3.52354 -3.12885e-18)
(15.167 3.49556 7.09553e-22)
(15.2022 3.46816 7.49919e-20)
(15.2627 3.44881 6.19555e-18)
(15.351 3.452 -1.49249e-19)
(15.4568 3.48895 0)
(15.5692 3.56586 6.618e-18)
(15.6808 3.68846 1.43824e-19)
(15.7798 3.85501 1.11318e-19)
(15.8608 4.05976 1.21186e-20)
(15.921 4.29196 -3.17331e-19)
(15.9635 4.54045 2.3502e-18)
(15.9937 4.79573 -1.33476e-18)
(16.0157 5.05218 -1.97631e-19)
(16.0311 5.30252 -4.3718e-19)
(16.0388 5.54457 1.18858e-18)
(16.0416 5.76393 -8.18479e-19)
(16.0326 5.97322 1.68299e-18)
(16.0276 6.12891 -1.09785e-18)
(15.1975 3.57154 -3.6208e-18)
(15.201 3.56018 -1.8581e-19)
(15.1793 3.56058 -8.28706e-21)
(15.1599 3.54776 1.63086e-19)
(15.1544 3.52549 3.15514e-18)
(15.1622 3.49503 -9.74028e-23)
(15.1982 3.46404 -7.73684e-20)
(15.2608 3.44021 1.83553e-19)
(15.3535 3.43889 -5.64344e-18)
(15.4654 3.47211 4.69313e-18)
(15.585 3.54605 -6.96855e-18)
(15.7055 3.66705 -4.91799e-18)
(15.8139 3.83318 3.60083e-18)
(15.905 4.03842 0)
(15.9753 4.27111 1.81597e-18)
(16.0287 4.5191 0)
(16.071 4.77227 1.78678e-18)
(16.1073 5.02538 1.10624e-18)
(16.1393 5.27143 -1.95573e-20)
(16.1654 5.50986 -1.32891e-18)
(16.1879 5.72531 -2.73093e-20)
(16.1976 5.93295 7.60501e-21)
(16.2109 6.08671 -4.44148e-19)
(15.1982 3.57713 9.44579e-20)
(15.201 3.5635 -9.05833e-21)
(15.1777 3.5645 8.98952e-21)
(15.1573 3.55117 -1.6241e-19)
(15.1506 3.52758 -1.56048e-18)
(15.1576 3.49478 0)
(15.1941 3.46025 6.49409e-20)
(15.2586 3.43193 -6.39608e-18)
(15.3552 3.42595 -1.40408e-19)
(15.4731 3.45526 -4.71154e-18)
(15.5996 3.52591 3.68901e-18)
(15.7289 3.64496 7.70413e-18)
(15.8468 3.81029 -3.49407e-18)
(15.9482 4.01565 2.50236e-18)
(16.029 4.24847 1.93343e-19)
(16.0932 4.49543 1.62639e-20)
(16.1477 4.74551 -1.03405e-19)
(16.1985 4.99378 -3.49819e-19)
(16.2476 5.23345 2.38971e-19)
(16.2927 5.46578 -4.05488e-19)
(16.3357 5.67452 -2.89489e-20)
(16.3654 5.87781 3.50298e-19)
(16.3981 6.02711 0)
(15.1991 3.58245 1.44734e-19)
(15.2009 3.56655 0)
(15.1763 3.56827 0)
(15.1549 3.55452 -7.50394e-20)
(15.147 3.52974 -1.55331e-18)
(15.153 3.49471 2.54988e-18)
(15.1898 3.45672 4.04255e-20)
(15.256 3.42388 -6.23261e-20)
(15.3564 3.41313 5.90361e-18)
(15.4799 3.43835 -8.22867e-20)
(15.6132 3.50538 1.95067e-19)
(15.7513 3.62211 -2.6277e-18)
(15.8788 3.78623 0)
(15.9909 3.99136 -2.67182e-18)
(16.0823 4.22397 -3.88295e-18)
(16.1575 4.46936 -1.51393e-18)
(16.2242 4.71536 -9.07802e-19)
(16.2893 4.95714 0)
(16.3554 5.18806 0)
(16.4197 5.41145 7.38309e-19)
(16.4835 5.61017 5.27911e-19)
(16.5336 5.80575 -1.09181e-18)
(16.5865 5.94726 0)
(15.2 3.58751 3.46071e-18)
(15.2007 3.56945 -5.82916e-21)
(15.1751 3.5719 5.37307e-21)
(15.1526 3.55784 7.8072e-20)
(15.1435 3.53201 3.03216e-18)
(15.1484 3.49485 -5.08351e-18)
(15.1855 3.45341 -4.10038e-20)
(15.2531 3.41602 -6.3704e-20)
(15.3569 3.40035 8.35867e-20)
(15.486 3.42125 0)
(15.6258 3.48434 -3.69414e-18)
(15.7729 3.59834 2.78063e-18)
(15.9103 3.76084 0)
(16.0333 3.96536 0)
(16.1357 4.19744 1.85278e-18)
(16.222 4.44075 1.26777e-19)
(16.3006 4.68164 1.03853e-18)
(16.3794 4.91508 7.84141e-19)
(16.4619 5.13445 -1.14262e-18)
(16.5448 5.3455 -4.25926e-19)
(16.6291 5.53001 1.72693e-18)
(16.6992 5.71423 -1.63141e-18)
(16.7724 5.84445 1.09796e-18)
(15.2011 3.59215 -1.6143e-18)
(15.2004 3.57221 -2.18903e-19)
(15.174 3.57539 -2.72413e-21)
(15.1505 3.56114 3.6099e-21)
(15.1401 3.53439 -1.51295e-18)
(15.1439 3.49522 2.57581e-18)
(15.1809 3.45037 -3.44624e-20)
(15.2498 3.40836 -1.93815e-20)
(15.3567 3.38755 8.51519e-20)
(15.4913 3.40391 4.32164e-20)
(15.6375 3.46266 -5.64608e-20)
(15.7938 3.57347 -2.78824e-18)
(15.9413 3.7339 2.12486e-18)
(16.0758 3.93744 -8.78113e-20)
(16.1895 4.16872 0)
(16.2868 4.4095 -1.4335e-19)
(16.3766 4.64437 1.30761e-19)
(16.468 4.86787 -7.79757e-19)
(16.5655 5.07341 1.40646e-18)
(16.6653 5.26915 8.30912e-19)
(16.7682 5.43675 -5.64182e-19)
(16.8569 5.60442 -8.47698e-19)
(16.9487 5.72219 1.09247e-18)
(15.2022 3.59639 5.21954e-20)
(15.2001 3.57483 2.26963e-19)
(15.1731 3.57873 0)
(15.1486 3.56439 0)
(15.1368 3.53684 0)
(15.1394 3.49576 0)
(15.1761 3.44753 3.49367e-20)
(15.2461 3.40086 -1.31564e-20)
(15.3559 3.37469 -4.32009e-20)
(15.4959 3.38622 4.40786e-20)
(15.6483 3.4402 -5.76194e-20)
(15.814 3.54734 0)
(15.9718 3.70517 -4.16474e-18)
(16.1183 3.90726 9.85574e-20)
(16.2437 4.13746 -1.99305e-19)
(16.3519 4.37541 1.70574e-18)
(16.4521 4.60356 -1.32519e-19)
(16.5544 4.81546 2.13403e-19)
(16.6647 5.00463 -2.6287e-19)
(16.7792 5.18108 4.20516e-19)
(16.8981 5.32816 -5.94992e-19)
(17.0034 5.47315 0)
(17.1113 5.57624 5.7454e-19)
(15.2033 3.60022 3.05151e-18)
(15.1998 3.57732 1.8868e-19)
(15.1724 3.58193 4.98735e-21)
(15.1467 3.56761 -5.81289e-20)
(15.1337 3.53939 7.06442e-19)
(15.1349 3.4965 1.58783e-20)
(15.1711 3.44492 -3.41329e-18)
(15.2419 3.39353 3.57766e-18)
(15.3543 3.36178 3.12764e-18)
(15.4995 3.36815 0)
(15.6581 3.41688 6.70897e-20)
(15.8333 3.51974 -3.06541e-18)
(16.0019 3.67437 2.17076e-18)
(16.1609 3.87451 1.44875e-18)
(16.2984 4.10338 1.0967e-18)
(16.4171 4.33823 0)
(16.5265 4.55906 0)
(16.6374 4.7578 -8.08695e-19)
(16.7573 4.92806 -8.82849e-19)
(16.8831 5.08129 4.25913e-19)
(17.0139 5.20404 3.09638e-19)
(17.132 5.32098 4.0864e-19)
(17.2519 5.40618 -5.6791e-19)
(15.2043 3.60373 -1.50459e-18)
(15.1994 3.57969 -1.88576e-19)
(15.1718 3.58503 1.77446e-21)
(15.145 3.57078 -2.19964e-20)
(15.1307 3.54195 -7.07215e-19)
(15.1306 3.49725 -1.26716e-18)
(15.1662 3.44228 1.66425e-18)
(15.2378 3.38607 -3.54613e-18)
(15.3524 3.34848 -3.11366e-18)
(15.5029 3.34947 -7.60632e-20)
(15.6673 3.39248 0)
(15.8522 3.49045 2.97146e-18)
(16.0317 3.64123 2.18682e-18)
(16.2037 3.83885 -1.53241e-18)
(16.3535 4.06618 -9.44219e-19)
(16.4823 4.29788 -3.94497e-19)
(16.5992 4.51116 -2.91245e-19)
(16.7157 4.69565 1.59914e-18)
(16.8409 4.8449 0)
(16.9731 4.97157 0)
(17.11 5.06665 3.05804e-19)
(17.236 5.15144 -7.80356e-19)
(17.3626 5.21441 -5.5676e-19)
(15.2052 3.60682 1.44224e-18)
(15.1991 3.58194 0)
(15.1713 3.588 0)
(15.1434 3.57412 1.73752e-19)
(15.1276 3.54498 6.69796e-19)
(15.1257 3.49881 1.29922e-18)
(15.16 3.4406 -1.04021e-20)
(15.2317 3.37945 1.78961e-18)
(15.3484 3.33562 7.44992e-20)
(15.504 3.33049 -2.7916e-18)
(15.6746 3.36702 6.95269e-20)
(15.8696 3.45928 -9.04293e-20)
(16.0607 3.60539 -2.17972e-18)
(16.2465 3.79986 1.58661e-18)
(16.4094 4.02553 1.04657e-18)
(16.548 4.25438 -7.94761e-19)
(16.6705 4.46051 6.86001e-19)
(16.7886 4.63057 -7.90867e-19)
(16.9132 4.75757 0)
(17.0447 4.85525 0)
(17.1803 4.91975 -2.82051e-19)
(17.3073 4.96973 1.9252e-19)
(17.4328 5.0067 -5.39799e-19)
(15.2063 3.6098 -1.78316e-20)
(15.1986 3.58393 2.93798e-19)
(15.1711 3.59064 0)
(15.1422 3.57638 -4.07765e-20)
(15.1255 3.54624 -1.35506e-18)
(15.1231 3.49772 1.61206e-20)
(15.1575 3.43579 -3.86785e-20)
(15.2309 3.37012 -1.85913e-18)
(15.3488 3.32033 4.54886e-20)
(15.5097 3.31018 2.79817e-18)
(15.6844 3.34062 -6.15677e-20)
(15.8882 3.42659 -1.51641e-18)
(16.09 3.56732 -1.40853e-19)
(16.2891 3.75775 -1.48246e-18)
(16.4648 3.98146 -1.18476e-18)
(16.6126 4.20789 8.84354e-20)
(16.7385 4.40785 0)
(16.8544 4.56457 -1.02875e-19)
(16.9725 4.66993 1.31878e-19)
(17.0952 4.73824 0)
(17.2215 4.77148 2.66762e-19)
(17.3415 4.7884 -1.87288e-19)
(17.4579 4.79949 0)
(15.2072 3.61205 -1.42891e-18)
(15.1985 3.58651 -2.93563e-19)
(15.1704 3.59426 0)
(15.1402 3.5823 -5.50099e-20)
(15.1215 3.55374 1.34845e-18)
(15.1163 3.50601 1.30138e-18)
(15.1482 3.44227 3.48609e-18)
(15.2203 3.37054 0)
(15.3406 3.31314 3.3272e-18)
(15.506 3.29417 -2.83903e-18)
(15.6876 3.31525 2.11873e-18)
(15.9022 3.39368 1.56675e-18)
(16.1166 3.5277 -1.86137e-20)
(16.3313 3.71347 2.41071e-20)
(16.522 3.93562 -1.12925e-18)
(16.6798 4.1614 7.73737e-19)
(16.8069 4.3579 0)
(16.9147 4.50364 3.69172e-19)
(17.0165 4.58811 0)
(17.1194 4.62548 0)
(17.227 4.62587 -2.58167e-19)
(17.3331 4.61109 -5.25709e-19)
(17.4338 4.59483 4.44231e-19)
(15.2074 3.6137 0)
(15.1981 3.58791 1.68891e-23)
(15.1702 3.59612 -3.73071e-23)
(15.1393 3.58496 5.20113e-20)
(15.1199 3.55694 -3.28107e-19)
(15.1138 3.50926 -1.30123e-18)
(15.1449 3.44419 -1.75578e-18)
(15.2171 3.36928 -2.22952e-21)
(15.338 3.30695 -1.63171e-18)
(15.5065 3.2819 -5.68441e-20)
(15.6921 3.2956 4.25781e-20)
(15.9143 3.36642 0)
(16.1392 3.49276 1.88827e-20)
(16.3683 3.67201 -2.44206e-20)
(16.5741 3.89072 1.65578e-18)
(16.7431 4.11539 4.7156e-20)
(16.872 4.31058 0)
(16.9694 4.45061 8.28602e-20)
(17.0491 4.52142 -1.20035e-19)
(17.124 4.53507 0)
(17.2038 4.50886 0)
(17.2837 4.467 3.12907e-19)
(17.3531 4.42069 -2.16349e-19)
(15.208 3.61532 -1.51399e-18)
(15.1977 3.58923 -3.44345e-19)
(15.1699 3.59785 0)
(15.1384 3.58738 -5.20616e-20)
(15.1183 3.55979 -3.49926e-19)
(15.1113 3.512 -1.3872e-18)
(15.1416 3.44546 1.84817e-18)
(15.2138 3.36749 -1.98523e-18)
(15.3354 3.30033 -1.69788e-18)
(15.507 3.2694 4.38365e-18)
(15.6966 3.27582 -2.16432e-18)
(15.9266 3.33871 -1.63448e-18)
(16.1622 3.45682 -1.18582e-18)
(16.4058 3.62885 0)
(16.6274 3.8439 -5.66512e-19)
(16.8083 4.06891 7.7487e-19)
(16.9384 4.26699 3.30232e-20)
(17.0222 4.40873 -3.92681e-19)
(17.0743 4.47516 0)
(17.1124 4.47405 0)
(17.1508 4.42878 0)
(17.1876 4.36693 -4.19352e-19)
(17.214 4.2989 3.66264e-19)
(15.2085 3.61685 1.51627e-18)
(15.1975 3.5905 7.34228e-22)
(15.1697 3.59955 0)
(15.1376 3.58975 1.85361e-20)
(15.1167 3.56259 -2.61519e-23)
(15.1089 3.51467 2.11441e-18)
(15.1383 3.44666 -3.7592e-18)
(15.2103 3.36564 6.08267e-18)
(15.3328 3.2936 -2.02377e-21)
(15.5072 3.25677 -1.47952e-18)
(15.7008 3.25576 -1.13454e-18)
(15.9385 3.31028 1.63783e-18)
(16.1849 3.4195 1.17105e-18)
(16.4434 3.58347 -8.42002e-19)
(16.6816 3.79459 9.22684e-21)
(16.8761 4.02154 -7.82036e-19)
(17.0085 4.2275 0)
(17.0781 4.37953 0)
(17.099 4.45265 1.98851e-19)
(17.0912 4.45008 0)
(17.0773 4.40145 0)
(17.0684 4.33985 6.61042e-20)
(17.0619 4.27588 1.38926e-19)
(15.209 3.61829 0)
(15.1972 3.59173 3.44587e-19)
(15.1695 3.6012 -5.37407e-24)
(15.1369 3.59211 -2.66684e-20)
(15.1154 3.56541 -5.04155e-23)
(15.1066 3.51739 -1.48541e-18)
(15.1351 3.44793 1.91102e-18)
(15.2069 3.36388 -4.09902e-18)
(15.33 3.2869 -1.81732e-18)
(15.5072 3.24408 0)
(15.7047 3.23539 1.12954e-18)
(15.9496 3.28107 3.29561e-21)
(16.2066 3.38063 2.26007e-22)
(16.4801 3.53559 8.36775e-19)
(16.7361 3.74221 0)
(16.9465 3.97251 3.92521e-19)
(17.0846 4.1914 -7.68275e-21)
(17.1424 4.36291 0)
(17.1313 4.45659 -1.96752e-19)
(17.0763 4.47327 0)
(17.0172 4.44882 0)
(16.9769 4.41274 0)
(16.9392 4.36348 -1.94494e-20)
(15.2096 3.61964 0)
(15.197 3.59292 -1.57833e-19)
(15.1694 3.60282 5.49812e-25)
(15.1362 3.59445 8.14195e-21)
(15.114 3.56825 4.6156e-19)
(15.1044 3.52018 1.55354e-18)
(15.1319 3.44932 0)
(15.2034 3.36225 -2.1599e-18)
(15.327 3.28028 3.67058e-18)
(15.5067 3.23135 -3.46004e-23)
(15.7078 3.21473 1.16951e-18)
(15.9597 3.25108 -8.52382e-19)
(16.2271 3.34017 0)
(16.5157 3.48498 0)
(16.7907 3.68617 5.91212e-19)
(17.0204 3.92064 -3.84438e-19)
(17.1695 4.15694 0)
(17.2209 4.35731 -2.73952e-19)
(17.1836 4.48829 -1.51506e-19)
(17.093 4.54995 0)
(17.0017 4.5738 1.49779e-21)
(16.9165 4.5625 -9.77085e-23)
(16.798 4.49978 -4.58788e-20)
(15.2101 3.6209 -3.53648e-24)
(15.1968 3.59406 3.05012e-19)
(15.1693 3.6044 4.53371e-24)
(15.1357 3.59679 0)
(15.1128 3.57112 3.17053e-20)
(15.1022 3.52305 -1.61915e-18)
(15.1287 3.45083 -4.00689e-22)
(15.1997 3.36076 2.16159e-18)
(15.3236 3.27375 -1.85263e-18)
(15.5056 3.21859 1.59494e-18)
(15.7101 3.19381 1.52872e-20)
(15.9685 3.22032 1.71367e-18)
(16.2462 3.29806 -1.24982e-18)
(16.5499 3.43142 3.2678e-21)
(16.8455 3.6258 -1.19212e-18)
(17.0982 3.86429 4.00801e-19)
(17.2654 4.1213 -1.43489e-20)
(17.3204 4.35951 2.80918e-19)
(17.2715 4.54548 1.48156e-19)
(17.1602 4.67419 0)
(17.024 4.75256 1.967e-20)
(16.841 4.75104 0)
(16.5977 4.66777 6.52223e-21)
(15.2107 3.62207 0)
(15.1966 3.59516 -1.47153e-19)
(15.1692 3.60594 -1.60188e-19)
(15.1351 3.59911 -2.70011e-24)
(15.1115 3.57401 -1.01846e-18)
(15.1 3.526 8.26182e-19)
(15.1254 3.45246 0)
(15.1959 3.35942 0)
(15.3199 3.26732 -1.08527e-21)
(15.504 3.20583 -1.59478e-18)
(15.7117 3.17265 1.41106e-20)
(15.9761 3.1888 -8.59999e-19)
(16.2638 3.2543 1.24428e-18)
(16.5826 3.37473 0)
(16.9002 3.56033 5.96385e-19)
(17.1802 3.80149 -3.87041e-19)
(17.3743 4.08054 2.20886e-19)
(17.4479 4.3637 1.67935e-20)
(17.4069 4.61932 0)
(17.282 4.82937 0)
(17.0754 4.97078 -1.87166e-20)
(16.7822 5.01308 1.02913e-20)
(16.4787 4.99203 -2.72881e-21)
(15.2113 3.62314 0)
(15.1964 3.59622 5.79216e-24)
(15.1692 3.60744 1.6035e-19)
(15.1346 3.60142 6.13678e-20)
(15.1103 3.57694 5.24518e-19)
(15.0979 3.52902 1.59701e-22)
(15.122 3.45422 1.0855e-18)
(15.1919 3.35824 1.14482e-18)
(15.3159 3.26101 -1.93148e-18)
(15.5019 3.19308 0)
(15.7126 3.15127 1.40742e-20)
(15.9824 3.15655 -8.74225e-19)
(16.2798 3.20888 0)
(16.6134 3.31468 -1.45029e-20)
(16.9543 3.48896 6.36668e-19)
(17.266 3.72993 0)
(17.4974 4.02966 -2.08906e-20)
(17.6083 4.36107 8.49716e-21)
(17.5963 4.69422 1.30969e-19)
(17.4679 4.99771 0)
(17.2121 5.24115 0)
(16.9056 5.42169 -1.03397e-20)
(16.6848 5.57949 1.10336e-19)
(15.2119 3.62413 6.59812e-24)
(15.1963 3.59724 -8.71721e-24)
(15.1692 3.6089 0)
(15.1341 3.60372 8.68903e-20)
(15.1091 3.57989 -3.39734e-22)
(15.0957 3.53213 3.30471e-22)
(15.1186 3.45611 -1.0859e-18)
(15.1877 3.35722 -1.14695e-18)
(15.3116 3.25482 1.93341e-18)
(15.4992 3.18035 -1.64409e-18)
(15.7126 3.12971 -1.21954e-18)
(15.9874 3.12362 8.81865e-19)
(16.2941 3.16182 6.37986e-19)
(16.6421 3.25114 4.4233e-19)
(17.0074 3.41093 -6.17556e-19)
(17.3548 3.64719 2.50687e-20)
(17.6341 3.9627 -2.63076e-19)
(17.8025 4.33947 -9.39524e-20)
(17.8431 4.74894 -4.73982e-20)
(17.7452 5.15654 -3.68987e-21)
(17.5328 5.55074 4.46338e-21)
(17.3573 5.93871 0)
(17.2916 6.29719 -4.73339e-20)
(15.2124 3.62502 0)
(15.1962 3.59821 -1.02945e-19)
(15.1692 3.61033 -1.2278e-19)
(15.1336 3.60601 -6.20174e-20)
(15.108 3.58287 3.02372e-19)
(15.0935 3.53532 0)
(15.1151 3.45813 1.46665e-21)
(15.1833 3.35637 -1.92822e-21)
(15.307 3.24877 9.89985e-19)
(15.496 3.16765 2.4816e-18)
(15.712 3.10799 -1.24213e-18)
(15.9909 3.09004 -6.63214e-21)
(16.3064 3.11317 9.95603e-21)
(16.668 3.184 -4.56793e-19)
(17.0584 3.32553 0)
(17.445 3.55088 4.28539e-19)
(17.7821 3.87328 -2.60345e-19)
(18.0267 4.28513 1.26313e-19)
(18.1491 4.75946 2.53071e-20)
(18.1417 5.26862 -2.29262e-20)
(18.081 5.82224 3.71851e-21)
(18.1077 6.38771 -2.31721e-20)
(18.1357 6.85214 -7.82703e-20)
(15.213 3.62583 -3.89567e-19)
(15.196 3.59915 1.00797e-20)
(15.1692 3.61172 1.22887e-19)
(15.1331 3.60828 -8.6413e-20)
(15.1068 3.58588 -6.17641e-19)
(15.0914 3.53858 -9.55799e-19)
(15.1116 3.46029 -1.49016e-21)
(15.1789 3.35569 1.95918e-21)
(15.3022 3.24287 -9.90971e-19)
(15.4923 3.15502 -8.33355e-19)
(15.7106 3.08617 2.5144e-18)
(15.993 3.05587 -8.98262e-19)
(16.3168 3.06301 -6.57543e-19)
(16.6908 3.11327 4.74525e-19)
(17.1062 3.2322 -2.11358e-20)
(17.5345 3.43888 -3.73527e-19)
(17.9367 3.75553 2.56168e-19)
(18.273 4.18416 -2.26973e-19)
(18.5091 4.69943 -2.07777e-20)
(18.65 5.28377 0)
(18.7948 5.94753 -2.01058e-20)
(18.9845 6.59234 3.65089e-20)
(18.9745 7.04559 -1.11742e-19)
(15.2135 3.62656 3.89894e-19)
(15.1959 3.60004 1.3471e-19)
(15.1692 3.61307 1.00496e-19)
(15.1327 3.61055 1.10388e-19)
(15.1058 3.58891 3.151e-19)
(15.0892 3.54193 9.56319e-19)
(15.1081 3.46259 1.16527e-18)
(15.1743 3.3552 0)
(15.2971 3.23713 1.01717e-18)
(15.4881 3.14245 -8.51902e-19)
(15.7084 3.06428 -1.26719e-18)
(15.9935 3.02118 8.98798e-19)
(16.3249 3.01147 0)
(16.7097 3.039 -4.42707e-19)
(17.1493 3.13061 3.03997e-19)
(17.6201 3.30969 -2.3613e-19)
(18.0914 3.6048 6.97371e-20)
(18.5297 4.02511 6.98697e-20)
(18.9019 4.54715 -1.69122e-19)
(19.2188 5.15926 8.51029e-20)
(19.5539 5.84674 0)
(19.8049 6.46459 5.558e-20)
(19.6401 6.83837 -5.26863e-20)
(15.2141 3.6272 0)
(15.1958 3.60089 -4.16883e-20)
(15.1692 3.61438 -1.00602e-19)
(15.1324 3.6128 -1.10624e-19)
(15.1047 3.59197 -1.70638e-22)
(15.0871 3.54536 3.71257e-22)
(15.1045 3.46503 -5.73245e-19)
(15.1696 3.35488 0)
(15.2918 3.23156 -1.01817e-18)
(15.4834 3.12998 -9.44332e-21)
(15.7056 3.04238 0)
(15.9924 2.98604 -4.57715e-19)
(16.3306 2.95871 0)
(16.7243 2.96141 3.27531e-20)
(17.1861 3.02079 -6.95687e-19)
(17.698 3.16267 1.77557e-19)
(18.2382 3.41863 7.9301e-20)
(18.7807 3.80154 -3.11847e-19)
(19.2956 4.2907 9.86807e-20)
(19.7851 4.87224 1.0784e-19)
(20.2554 5.49849 -1.71387e-19)
(20.4668 6.01196 7.83674e-20)
(20.0813 6.28478 -2.04466e-19)
(15.2146 3.62775 3.79455e-19)
(15.1957 3.6017 -3.23529e-20)
(15.1693 3.61566 3.92676e-20)
(15.132 3.61503 -9.98439e-23)
(15.1037 3.59505 4.03889e-22)
(15.0851 3.54886 -1.10208e-21)
(15.101 3.46762 -5.93318e-19)
(15.1648 3.35475 4.87612e-21)
(15.2862 3.22617 -3.69281e-21)
(15.4781 3.11762 -9.50496e-21)
(15.702 3.02051 -6.6542e-19)
(15.9896 2.95054 4.4225e-19)
(16.3337 2.90491 2.03574e-20)
(16.7338 2.88081 -3.36704e-20)
(17.215 2.90314 3.98784e-19)
(17.7638 2.99818 0)
(18.368 3.19678 1.84665e-19)
(19.0076 3.51154 2.13496e-19)
(19.6542 3.92474 -1.46548e-19)
(20.2875 4.41883 3.59082e-19)
(20.8313 4.92262 -1.7597e-19)
(20.9408 5.29712 4.27024e-20)
(20.3225 5.47509 3.16589e-19)
(15.2151 3.62823 -7.55401e-19)
(15.1956 3.60247 3.2383e-20)
(15.1694 3.6169 -5.56271e-21)
(15.1317 3.61726 0)
(15.1028 3.59816 0)
(15.0831 3.55245 -5.25851e-19)
(15.0974 3.47035 -6.12515e-19)
(15.1599 3.35482 0)
(15.2804 3.22098 -4.78075e-21)
(15.4724 3.1054 8.79485e-19)
(15.6976 2.99872 6.76922e-19)
(15.9849 2.91478 -1.4083e-20)
(16.334 2.85032 -2.36382e-20)
(16.7376 2.79766 6.48381e-20)
(17.2343 2.77851 -4.39648e-20)
(17.8131 2.81758 0)
(18.4719 2.94138 -2.85208e-19)
(19.1929 3.15959 1.40131e-20)
(19.9446 3.45789 -5.73579e-19)
(20.6726 3.81397 2.39395e-19)
(21.232 4.15716 3.47968e-19)
(21.2204 4.38905 -5.39864e-19)
(20.4032 4.4866 0)
(15.2157 3.62863 7.47855e-19)
(15.1956 3.60319 -1.43684e-23)
(15.1694 3.6181 -3.37548e-20)
(15.1314 3.61946 0)
(15.1018 3.60128 0)
(15.0811 3.55611 -1.07237e-20)
(15.0938 3.47322 1.23479e-18)
(15.1549 3.35509 0)
(15.2744 3.216 5.39587e-19)
(15.466 3.09332 0)
(15.6924 2.97708 0)
(15.9784 2.87885 -1.62306e-20)
(16.3315 2.79522 2.08648e-20)
(16.7352 2.71256 2.24365e-19)
(17.2428 2.64821 4.50898e-20)
(17.8418 2.62315 -7.94692e-20)
(18.542 2.65699 3.04197e-19)
(19.3196 2.75483 0)
(20.1389 2.91015 2.05574e-19)
(20.9103 3.0985 0)
(21.4359 3.25906 1.29417e-19)
(21.3086 3.34957 1.60244e-19)
(20.3495 3.37858 0)
(15.2162 3.62894 -5.56267e-19)
(15.1955 3.60388 9.47812e-21)
(15.1696 3.61927 0)
(15.1312 3.62166 8.52347e-20)
(15.101 3.60443 -1.93809e-19)
(15.0791 3.55985 5.38116e-19)
(15.0902 3.47625 -6.23252e-19)
(15.1497 3.35556 -6.60794e-19)
(15.2681 3.21125 -5.36241e-19)
(15.4592 3.08141 -7.78528e-21)
(15.6865 2.95563 1.01027e-20)
(15.9699 2.84286 4.70169e-19)
(16.326 2.7399 2.43465e-20)
(16.7262 2.62619 -3.27808e-19)
(17.2392 2.51385 4.61419e-20)
(17.8467 2.41806 0)
(18.5719 2.35096 0)
(19.3772 2.31266 0)
(20.2188 2.30585 0)
(20.9857 2.31513 -1.08366e-19)
(21.4481 2.29416 -6.95055e-19)
(21.2232 2.25102 7.24702e-19)
(20.1835 2.21941 0)
(15.2167 3.62919 1.84229e-19)
(15.1955 3.60453 -1.67663e-20)
(15.1697 3.62041 0)
(15.131 3.62384 -8.5386e-20)
(15.1001 3.6076 3.94032e-19)
(15.0772 3.56367 0)
(15.0866 3.47942 0)
(15.1445 3.35623 6.58417e-19)
(15.2615 3.20672 0)
(15.4517 3.06969 -4.47248e-19)
(15.6797 2.93445 -3.65873e-19)
(15.9595 2.80692 -2.34923e-19)
(16.3174 2.68471 3.70276e-19)
(16.7101 2.53929 0)
(17.2226 2.37731 0)
(17.8256 2.20616 9.0803e-20)
(18.5568 2.03122 -1.14609e-19)
(19.361 1.85054 0)
(20.1829 1.67636 -1.61585e-19)
(20.8995 1.5083 1.12309e-19)
(21.2825 1.31905 8.00007e-19)
(20.9877 1.15851 -1.03176e-18)
(19.9348 1.06624 0)
(15.2171 3.62935 -9.91047e-24)
(15.1954 3.60514 1.23924e-20)
(15.1698 3.62151 -1.87936e-23)
(15.1308 3.626 -4.85805e-20)
(15.0993 3.61079 -2.0023e-19)
(15.0753 3.56757 2.85672e-19)
(15.083 3.48275 1.03993e-21)
(15.1391 3.35712 -3.41327e-19)
(15.2548 3.20245 5.72565e-19)
(15.4437 3.05818 4.49068e-19)
(15.6722 2.91358 3.55982e-19)
(15.9471 2.77115 -2.36145e-19)
(16.3057 2.62998 -3.70862e-19)
(16.6867 2.45268 -3.75095e-20)
(17.1924 2.24072 4.78694e-20)
(17.7774 1.99199 9.53104e-20)
(18.4947 1.70643 -1.2078e-19)
(19.2691 1.3846 0)
(20.0332 1.05034 1.66015e-19)
(20.6651 0.718785 0)
(20.9617 0.380861 -1.0229e-19)
(20.6206 0.112238 0)
(19.602 -0.0562629 -6.29219e-20)
(15.2176 3.62945 -8.96007e-20)
(15.1954 3.60571 -5.09409e-21)
(15.17 3.62257 -2.82456e-21)
(15.1306 3.62815 -2.79088e-21)
(15.0986 3.61401 -2.91135e-22)
(15.0734 3.57154 6.43158e-21)
(15.0794 3.48622 -3.31046e-19)
(15.1336 3.35822 -6.52262e-21)
(15.2477 3.19843 -5.64099e-19)
(15.4352 3.04689 -8.10387e-21)
(15.6639 2.89309 3.77421e-19)
(15.9327 2.73564 0)
(16.2909 2.57604 -2.50454e-20)
(16.6562 2.36727 3.22422e-20)
(17.148 2.10626 1.0509e-19)
(17.7021 1.78004 0)
(18.3839 1.38547 0)
(19.1032 0.932181 -1.17162e-19)
(19.7725 0.452841 0)
(20.297 -0.0253757 6.84257e-19)
(20.5037 -0.49106 -7.83835e-19)
(20.1299 -0.864377 9.55704e-20)
(19.1223 -1.11255 2.3499e-18)
(15.2181 3.62947 1.78534e-19)
(15.1954 3.60625 3.36507e-22)
(15.1701 3.6236 2.80926e-21)
(15.1305 3.63028 5.20039e-20)
(15.0978 3.61723 1.08743e-19)
(15.0716 3.57559 -4.41489e-19)
(15.0758 3.48985 3.31932e-19)
(15.128 3.35955 3.40001e-19)
(15.2405 3.19468 9.20361e-21)
(15.426 3.03584 -6.66362e-21)
(15.6549 2.87302 -3.67283e-19)
(15.9163 2.70051 -1.18037e-19)
(16.2731 2.5233 1.64524e-19)
(16.6186 2.28407 1.67846e-19)
(17.089 1.97606 -1.05664e-19)
(17.6003 1.57527 0)
(18.2263 1.07665 0)
(18.8711 0.509297 -2.82877e-19)
(19.4199 -0.0953392 3.66754e-19)
(19.8267 -0.702175 0)
(19.9379 -1.27805 -1.30837e-19)