/*--------------------------------*- C++ -*----------------------------------*\
  =========                 |
  \\      /  F ield         | OpenFOAM: The Open Source CFD Toolbox
   \\    /   O peration     | Website:  https://openfoam.org
    \\  /    A nd           | Version:  7
     \\/     M anipulation  |
\*---------------------------------------------------------------------------*/
FoamFile
{
    version     2.0;
    format      ascii;
    class       volScalarField;
    location    "50";
    object      yPlus;
}
// * * * * * * * * * * * * * * * * * * * * * * * * * * * * * * * * * * * * * //

dimensions      [0 0 0 0 0 0 0];

internalField   uniform 0;

boundaryField
{
    inlet
    {
        type            calculated;
        value           uniform 0;
    }
    outlet
    {
        type            calculated;
        value           uniform 0;
    }
    suction_side
    {
        type            calculated;
        value           nonuniform List<scalar> 
56
(
9.38693
10.1688
11.8309
12.0675
16.1524
18.8357
23.1202
32.795
39.828
45.5025
50.4807
51.2223
46.9094
30.704
24.4713
32.9227
39.0354
43.9431
44.6982
44.5146
42.528
39.4866
36.4613
33.5114
31.2224
29.8281
28.5512
27.3453
26.4514
25.5958
26.8112
26.4961
30.0126
35.7606
38.3207
40.2549
25.6947
17.0735
22.5081
27.4877
30.4607
32.4228
33.6082
34.5469
35.1507
35.3636
35.1494
34.6
33.2064
30.2808
26.7481
23.4751
21.1827
20.2916
20.9197
25.1992
)
;
    }
    pressure_side
    {
        type            calculated;
        value           nonuniform List<scalar> 
56
(
40.2623
39.4353
39.2561
39.1479
38.7173
38.2858
37.9409
37.6282
37.3687
37.3012
37.2731
37.2698
37.2786
37.2914
37.3038
37.3136
37.3195
37.3253
37.3394
37.3631
37.3844
37.3615
37.2748
37.1282
36.9261
36.7198
36.6194
36.6939
36.974
37.4761
38.1181
38.7534
39.1949
38.9157
37.9031
36.5096
34.5378
31.7361
28.0546
23.8088
19.0671
14.3015
10.1601
6.58968
5.64731
5.36531
5.78642
6.15308
6.98487
7.13449
8.1484
8.02189
8.43634
8.52419
8.66218
9.15755
)
;
    }
    trailing_edge
    {
        type            calculated;
        value           nonuniform List<scalar> 2(137.426 125.372);
    }
    defaultFaces
    {
        type            empty;
    }
}


// ************************************************************************* //
