/*--------------------------------*- C++ -*----------------------------------*\
  =========                 |
  \\      /  F ield         | OpenFOAM: The Open Source CFD Toolbox
   \\    /   O peration     | Website:  https://openfoam.org
    \\  /    A nd           | Version:  7
     \\/     M anipulation  |
\*---------------------------------------------------------------------------*/
FoamFile
{
    version     2.0;
    format      ascii;
    class       volSymmTensorField;
    location    "600";
    object      devReff;
}
// * * * * * * * * * * * * * * * * * * * * * * * * * * * * * * * * * * * * * //

dimensions      [0 2 -2 0 0 0 0];

internalField   nonuniform List<symmTensor> 
180
(
(7.22406e-21 -0.0377364 -0 -1.44481e-20 -0 7.22406e-21)
(-6.97214e-21 -0.0485761 -0 1.39443e-20 -0 -6.97214e-21)
(3.99358e-20 -0.0208253 -0 -2.25757e-20 -0 -1.73601e-20)
(-3.91293e-21 -0.0231057 -0 7.82585e-21 -0 -3.91293e-21)
(-5.54245e-20 -0.0183123 -0 7.26888e-21 -0 4.81556e-20)
(7.38257e-20 -0.0199652 -0 -3.46372e-20 -0 -3.91885e-20)
(3.68181e-22 -0.0165506 -0 -7.36363e-22 -0 3.68181e-22)
(-6.99262e-22 -0.0178146 -0 1.39852e-21 -0 -6.99262e-22)
(-2.49773e-20 -0.0155569 -0 4.99546e-20 -0 -2.49773e-20)
(1.04518e-20 -0.0162862 -0 -2.09037e-20 -0 1.04518e-20)
(-6.07053e-20 -0.0147876 -0 1.21411e-19 -0 -6.07053e-20)
(3.6206e-20 -0.0150826 -0 -7.2412e-20 -0 3.6206e-20)
(-8.00187e-20 -0.0139278 -0 1.60037e-19 -0 -8.00187e-20)
(6.00798e-20 -0.0140259 -0 -1.2016e-19 -0 6.00798e-20)
(-5.25428e-20 -0.0130129 -0 1.05086e-19 -0 -5.25428e-20)
(6.47578e-20 -0.0130323 -0 -1.29516e-19 -0 6.47578e-20)
(-3.35862e-20 -0.0120754 -0 6.71724e-20 -0 -3.35862e-20)
(5.72687e-20 -0.0120591 -0 -1.14537e-19 -0 5.72687e-20)
(-3.53003e-20 -0.0111261 -0 7.06006e-20 -0 -3.53003e-20)
(5.07102e-20 -0.011086 -0 -1.0142e-19 -0 5.07102e-20)
(-3.55539e-20 -0.0101619 -0 7.11078e-20 -0 -3.55539e-20)
(3.57742e-20 -0.010102 -0 -7.15484e-20 -0 3.57742e-20)
(-8.5842e-21 -0.00917582 -0 1.71684e-20 -0 -8.5842e-21)
(1.39096e-20 -0.0091004 -0 -2.78192e-20 -0 1.39096e-20)
(5.58436e-20 -0.00816281 -0 -1.11687e-19 -0 5.58436e-20)
(-2.67048e-20 -0.00807663 -0 5.34096e-20 -0 -2.67048e-20)
(1.95366e-18 -0.007121 -0 -1.03419e-18 -0 -9.19468e-19)
(-1.93133e-18 -0.00702829 -0 9.87552e-19 -0 9.43783e-19)
(-2.34043e-20 -0.00605128 -0 4.68087e-20 -0 -2.34043e-20)
(8.70872e-20 -0.00595485 -0 -1.74174e-19 -0 8.70872e-20)
(6.66668e-20 -0.00495614 -0 -1.33334e-19 -0 6.66668e-20)
(3.6582e-20 -0.00485733 -0 -7.3164e-20 -0 3.6582e-20)
(2.15754e-19 -0.00383877 -0 -4.31507e-19 -0 2.15754e-19)
(-1.09468e-19 -0.00373773 -0 2.18935e-19 -0 -1.09468e-19)
(1.98526e-19 -0.0027024 -0 -3.97053e-19 -0 1.98526e-19)
(-1.29742e-19 -0.00259862 -0 2.59484e-19 -0 -1.29742e-19)
(6.29855e-20 -0.00155011 -0 -1.25971e-19 -0 6.29855e-20)
(-1.13534e-19 -0.00144276 -0 2.27068e-19 -0 -1.13534e-19)
(-3.25401e-21 -0.000384671 -0 6.50802e-21 -0 -3.25401e-21)
(-1.12472e-19 -0.000272937 -0 2.24945e-19 -0 -1.12472e-19)
(-4.08728e-21 0.000791374 -0 8.17456e-21 -0 -4.08728e-21)
(-1.03354e-19 0.000908164 -0 2.06707e-19 -0 -1.03354e-19)
(-7.25644e-21 0.00197565 -0 1.45129e-20 -0 -7.25644e-21)
(-8.98593e-20 0.00209798 -0 1.79719e-19 -0 -8.98593e-20)
(-8.80821e-21 0.00316588 -0 1.76164e-20 -0 -8.80821e-21)
(-7.48867e-20 0.00329405 -0 1.49773e-19 -0 -7.48867e-20)
(-9.62139e-21 0.00435985 -0 1.92428e-20 -0 -9.62139e-21)
(-5.97506e-20 0.00449401 -0 1.19501e-19 -0 -5.97506e-20)
(-9.24112e-21 0.00555535 -0 1.84822e-20 -0 -9.24112e-21)
(-4.61673e-20 0.00569553 -0 9.23347e-20 -0 -4.61673e-20)
(-7.87728e-21 0.00675019 -0 1.57546e-20 -0 -7.87728e-21)
(-3.50678e-20 0.00689635 -0 7.01355e-20 -0 -3.50678e-20)
(-6.20201e-21 0.00794215 -0 1.2404e-20 -0 -6.20201e-21)
(-2.51195e-20 0.0080942 -0 5.0239e-20 -0 -2.51195e-20)
(-4.38435e-21 0.00912905 -0 8.7687e-21 -0 -4.38435e-21)
(-1.57819e-20 0.00928686 -0 3.15639e-20 -0 -1.57819e-20)
(-3.54281e-21 0.0103087 -0 7.08562e-21 -0 -3.54281e-21)
(-7.41974e-21 0.0104721 -0 1.48395e-20 -0 -7.41974e-21)
(-2.94618e-21 0.0114788 -0 5.89235e-21 -0 -2.94618e-21)
(2.21942e-22 0.0116478 -0 -4.43883e-22 -0 2.21942e-22)
(-1.40594e-21 0.0126374 -0 2.81188e-21 -0 -1.40594e-21)
(7.48269e-21 0.0128117 -0 -1.49654e-20 -0 7.48269e-21)
(-2.1773e-21 0.0137822 -0 4.3546e-21 -0 -2.1773e-21)
(1.3486e-20 0.0139617 -0 -2.69721e-20 -0 1.3486e-20)
(-1.3587e-21 0.0149111 -0 2.7174e-21 -0 -1.3587e-21)
(2.01219e-20 0.0150957 -0 -4.02438e-20 -0 2.01219e-20)
(1.43823e-21 0.0160221 -0 -2.87645e-21 -0 1.43823e-21)
(2.62212e-20 0.0162117 -0 -5.24424e-20 -0 2.62212e-20)
(1.77961e-22 0.0171131 -0 -3.55923e-22 -0 1.77961e-22)
(3.16997e-20 0.0173075 -0 -6.33995e-20 -0 3.16997e-20)
(-1.19362e-21 0.0181821 -0 2.38724e-21 -0 -1.19362e-21)
(3.64304e-20 0.0183812 -0 -7.28608e-20 -0 3.64304e-20)
(-7.14304e-22 0.0192271 -0 1.42861e-21 -0 -7.14304e-22)
(4.01371e-20 0.0194309 -0 -8.02742e-20 -0 4.01371e-20)
(-6.60387e-22 0.0202463 -0 1.32077e-21 -0 -6.60387e-22)
(4.48198e-20 0.0204546 -0 -8.96396e-20 -0 4.48198e-20)
(-9.9595e-22 0.0212379 -0 1.9919e-21 -0 -9.9595e-22)
(4.85425e-20 0.0214506 -0 -9.70849e-20 -0 4.85425e-20)
(-1.70649e-21 0.0221999 -0 3.41298e-21 -0 -1.70649e-21)
(4.89515e-20 0.0224169 -0 -9.7903e-20 -0 4.89515e-20)
(-9.3255e-22 0.0231308 -0 1.8651e-21 -0 -9.3255e-22)
(4.77762e-20 0.023352 -0 -9.55524e-20 -0 4.77762e-20)
(-4.44914e-22 0.0240288 -0 8.89827e-22 -0 -4.44914e-22)
(4.90335e-20 0.0242541 -0 -9.80669e-20 -0 4.90335e-20)
(-2.11485e-21 0.0248923 -0 4.2297e-21 -0 -2.11485e-21)
(4.87206e-20 0.0251216 -0 -9.74412e-20 -0 4.87206e-20)
(-4.07421e-21 0.0257198 -0 8.14842e-21 -0 -4.07421e-21)
(4.49752e-20 0.025953 -0 -8.99504e-20 -0 4.49752e-20)
(-6.24918e-21 0.0265099 -0 1.24984e-20 -0 -6.24918e-21)
(4.0211e-20 0.0267468 -0 -8.0422e-20 -0 4.0211e-20)
(-8.57782e-21 0.0272611 -0 1.71556e-20 -0 -8.57782e-21)
(3.42378e-20 0.0275017 -0 -6.84757e-20 -0 3.42378e-20)
(-1.10356e-20 0.0279721 -0 2.20712e-20 -0 -1.10356e-20)
(3.14856e-20 0.0282163 -0 -6.29711e-20 -0 3.14856e-20)
(-1.35795e-20 0.0286418 -0 2.7159e-20 -0 -1.35795e-20)
(2.79943e-20 0.0288893 -0 -5.59885e-20 -0 2.79943e-20)
(-1.61396e-20 0.0292688 -0 3.22792e-20 -0 -1.61396e-20)
(1.95244e-20 0.0295196 -0 -3.90487e-20 -0 1.95244e-20)
(-1.86045e-20 0.0298522 -0 3.7209e-20 -0 -1.86045e-20)
(1.0828e-20 0.0301062 -0 -2.16559e-20 -0 1.0828e-20)
(-2.08878e-20 0.030391 -0 4.17756e-20 -0 -2.08878e-20)
(6.64681e-21 0.0306479 -0 -1.32936e-20 -0 6.64681e-21)
(-2.28967e-20 0.0308842 -0 4.57934e-20 -0 -2.28967e-20)
(2.79598e-21 0.0311439 -0 -5.59195e-21 -0 2.79598e-21)
(-2.45736e-20 0.031331 -0 4.91472e-20 -0 -2.45736e-20)
(-5.07085e-21 0.0315934 -0 1.01417e-20 -0 -5.07085e-21)
(-2.58712e-20 0.0317307 -0 5.17424e-20 -0 -2.58712e-20)
(-1.22362e-20 0.0319956 -0 2.44724e-20 -0 -1.22362e-20)
(-2.6802e-20 0.0320826 -0 5.36039e-20 -0 -2.6802e-20)
(-1.85889e-20 0.0323498 -0 3.71778e-20 -0 -1.85889e-20)
(-2.73746e-20 0.0323861 -0 5.47492e-20 -0 -2.73746e-20)
(-2.03757e-20 0.0326555 -0 4.07515e-20 -0 -2.03757e-20)
(-2.76078e-20 0.0326408 -0 5.52155e-20 -0 -2.76078e-20)
(-2.18943e-20 0.0329122 -0 4.37885e-20 -0 -2.18943e-20)
(-2.7494e-20 0.0328462 -0 5.4988e-20 -0 -2.7494e-20)
(-2.67675e-20 0.0331194 -0 5.3535e-20 -0 -2.67675e-20)
(-2.70303e-20 0.033002 -0 5.40606e-20 -0 -2.70303e-20)
(-3.05295e-20 0.0332768 -0 6.10589e-20 -0 -3.05295e-20)
(-2.61952e-20 0.0331081 -0 5.23904e-20 -0 -2.61952e-20)
(-3.32551e-20 0.0333843 -0 6.65103e-20 -0 -3.32551e-20)
(-2.49868e-20 0.0331642 -0 4.99736e-20 -0 -2.49868e-20)
(-3.5053e-20 0.0334416 -0 7.0106e-20 -0 -3.5053e-20)
(-2.34071e-20 0.0331703 -0 4.68143e-20 -0 -2.34071e-20)
(-3.60156e-20 0.0334488 -0 7.20312e-20 -0 -3.60156e-20)
(-2.14812e-20 0.0331265 -0 4.29624e-20 -0 -2.14812e-20)
(-3.62263e-20 0.0334058 -0 7.24526e-20 -0 -3.62263e-20)
(-1.92556e-20 0.0330329 -0 3.85112e-20 -0 -1.92556e-20)
(-3.57516e-20 0.0333128 -0 7.15033e-20 -0 -3.57516e-20)
(-1.68108e-20 0.0328897 -0 3.36216e-20 -0 -1.68108e-20)
(-3.46673e-20 0.03317 -0 6.93347e-20 -0 -3.46673e-20)
(-1.42479e-20 0.0326971 -0 2.84957e-20 -0 -1.42479e-20)
(-3.30393e-20 0.0329776 -0 6.60786e-20 -0 -3.30393e-20)
(-1.16948e-20 0.0324555 -0 2.33897e-20 -0 -1.16948e-20)
(-3.0911e-20 0.0327361 -0 6.18219e-20 -0 -3.0911e-20)
(-9.31054e-21 0.0321655 -0 1.86211e-20 -0 -9.31054e-21)
(-2.83129e-20 0.0324459 -0 5.66258e-20 -0 -2.83129e-20)
(-7.31862e-21 0.0318275 -0 1.46372e-20 -0 -7.31862e-21)
(-2.52534e-20 0.0321075 -0 5.05068e-20 -0 -2.52534e-20)
(-5.10031e-21 0.0314421 -0 1.02006e-20 -0 -5.10031e-21)
(-2.17129e-20 0.0317215 -0 4.34258e-20 -0 -2.17129e-20)
(-6.42709e-21 0.03101 -0 1.28542e-20 -0 -6.42709e-21)
(-2.21049e-20 0.0312887 -0 4.42097e-20 -0 -2.21049e-20)
(-7.62816e-21 0.030532 -0 1.52563e-20 -0 -7.62816e-21)
(-2.27399e-20 0.0308097 -0 4.54797e-20 -0 -2.27399e-20)
(-4.87533e-21 0.0300089 -0 9.75065e-21 -0 -4.87533e-21)
(-1.99029e-20 0.0302855 -0 3.98059e-20 -0 -1.99029e-20)
(-2.55961e-21 0.0294416 -0 5.11921e-21 -0 -2.55961e-21)
(-1.73277e-20 0.0297169 -0 3.46554e-20 -0 -1.73277e-20)
(-6.01572e-22 0.0288311 -0 1.20314e-21 -0 -6.01572e-22)
(-1.43815e-20 0.029105 -0 2.8763e-20 -0 -1.43815e-20)
(1.04983e-21 0.0281786 -0 -2.09966e-21 -0 1.04983e-21)
(-1.12847e-20 0.0284508 -0 2.25694e-20 -0 -1.12847e-20)
(2.43501e-21 0.0274851 -0 -4.87001e-21 -0 2.43501e-21)
(-8.19626e-21 0.0277555 -0 1.63925e-20 -0 -8.19626e-21)
(3.58544e-21 0.0267521 -0 -7.17088e-21 -0 3.58544e-21)
(-5.23379e-21 0.0270206 -0 1.04676e-20 -0 -5.23379e-21)
(4.53085e-21 0.0259811 -0 -9.06171e-21 -0 4.53085e-21)
(-2.47072e-21 0.0262474 -0 4.94144e-21 -0 -2.47072e-21)
(5.29813e-21 0.0251739 -0 -1.05963e-20 -0 5.29813e-21)
(4.59679e-23 0.0254381 -0 -9.19359e-23 -0 4.59679e-23)
(5.91307e-21 0.024333 -0 -1.18261e-20 -0 5.91307e-21)
(4.44918e-22 0.0245947 -0 -8.89836e-22 -0 4.44918e-22)
(6.39752e-21 0.0234611 -0 -1.2795e-20 -0 6.39752e-21)
(8.86571e-22 0.0237204 -0 -1.77314e-21 -0 8.86571e-22)
(6.77422e-21 0.0225619 -0 -1.35484e-20 -0 6.77422e-21)
(3.16053e-21 0.0228187 -0 -6.32107e-21 -0 3.16053e-21)
(7.0604e-21 0.0216403 -0 -1.41208e-20 -0 7.0604e-21)
(5.03245e-21 0.0218945 -0 -1.00649e-20 -0 5.03245e-21)
(7.26833e-21 0.0207019 -0 -1.45367e-20 -0 7.26833e-21)
(6.53923e-21 0.0209535 -0 -1.30785e-20 -0 6.53923e-21)
(7.40861e-21 0.0197531 -0 -1.48172e-20 -0 7.40861e-21)
(7.72069e-21 0.0200021 -0 -1.54414e-20 -0 7.72069e-21)
(7.48423e-21 0.0187988 -0 -1.49685e-20 -0 7.48423e-21)
(8.63111e-21 0.0190455 -0 -1.72622e-20 -0 8.63111e-21)
(7.40087e-21 0.0177989 -0 -1.48017e-20 -0 7.40087e-21)
(9.40219e-21 0.0180437 -0 -1.88044e-20 -0 9.40219e-21)
(6.15141e-21 0.0167429 -0 -1.23028e-20 -0 6.15141e-21)
(1.10709e-20 0.0169864 -0 -2.21418e-20 -0 1.10709e-20)
(2.91629e-21 0.00804395 -0 -5.83258e-21 -0 2.91629e-21)
(1.50077e-20 0.00816542 -0 -3.00155e-20 -0 1.50077e-20)
)
;

boundaryField
{
    inlet
    {
        type            cyclic;
    }
    outlet
    {
        type            cyclic;
    }
    bottom
    {
        type            symmetry;
    }
    top
    {
        type            calculated;
        value           nonuniform List<symmTensor> 2((5.26901e-21 -0.0182456 -0 -1.0538e-20 -0 5.26901e-21) (-2.41681e-21 -0.0189693 -0 4.83363e-21 -0 -2.41681e-21));
    }
    frontAndBack
    {
        type            empty;
    }
}


// ************************************************************************* //
