/*--------------------------------*- C++ -*----------------------------------*\
  =========                 |
  \\      /  F ield         | OpenFOAM: The Open Source CFD Toolbox
   \\    /   O peration     | Website:  https://openfoam.org
    \\  /    A nd           | Version:  7
     \\/     M anipulation  |
\*---------------------------------------------------------------------------*/
FoamFile
{
    version     2.0;
    format      ascii;
    class       volScalarField;
    location    "600";
    object      k;
}
// * * * * * * * * * * * * * * * * * * * * * * * * * * * * * * * * * * * * * //

dimensions      [0 2 -2 0 0 0 0];

internalField   nonuniform List<scalar> 
180
(
0.0860663
0.120482
0.0602993
0.0697339
0.0596998
0.0635763
0.0623033
0.064159
0.0664001
0.0673815
0.0713202
0.0718226
0.0765523
0.0767889
0.0818392
0.0819382
0.0870615
0.0871016
0.092172
0.0921987
0.0971585
0.0971952
0.102023
0.10208
0.106774
0.106854
0.111419
0.111522
0.115967
0.116091
0.120424
0.120568
0.124797
0.12496
0.129091
0.12927
0.133309
0.133505
0.137455
0.137667
0.141533
0.141761
0.145545
0.145789
0.149494
0.149753
0.153381
0.153655
0.157208
0.157497
0.160976
0.16128
0.164686
0.165004
0.168338
0.168671
0.171933
0.17228
0.175472
0.175833
0.178954
0.179328
0.182379
0.182767
0.185748
0.186149
0.189059
0.189473
0.192312
0.192739
0.195508
0.195946
0.198644
0.199095
0.201722
0.202185
0.204739
0.205214
0.207696
0.208182
0.210591
0.211088
0.213424
0.213933
0.216195
0.216714
0.218902
0.219432
0.221545
0.222085
0.224124
0.224674
0.226637
0.227196
0.229084
0.229653
0.231465
0.232043
0.233779
0.234366
0.236026
0.236622
0.238205
0.23881
0.240316
0.240929
0.24236
0.242981
0.244335
0.244963
0.246241
0.246878
0.24808
0.248723
0.24985
0.250501
0.251553
0.252209
0.253187
0.25385
0.254754
0.255423
0.256254
0.256929
0.257687
0.258368
0.259054
0.25974
0.260356
0.261046
0.261592
0.262288
0.262765
0.263464
0.263874
0.264577
0.26492
0.265627
0.265904
0.266615
0.266828
0.267542
0.267692
0.268409
0.268497
0.269217
0.269244
0.269967
0.269934
0.270659
0.270569
0.271296
0.271149
0.271878
0.271676
0.272406
0.27215
0.272882
0.272573
0.273306
0.272946
0.27368
0.27327
0.274004
0.273545
0.274281
0.273774
0.27451
0.273957
0.274693
0.274094
0.27483
0.274187
0.274923
0.274235
0.274971
0.274239
0.274974
0.274197
0.274932
)
;

boundaryField
{
    inlet
    {
        type            cyclic;
    }
    outlet
    {
        type            cyclic;
    }
    bottom
    {
        type            symmetry;
    }
    top
    {
        type            kqRWallFunction;
        value           nonuniform List<scalar> 2(0.0860663 0.120482);
    }
    frontAndBack
    {
        type            empty;
    }
}


// ************************************************************************* //
