/*--------------------------------*- C++ -*----------------------------------*\
  =========                 |
  \\      /  F ield         | OpenFOAM: The Open Source CFD Toolbox
   \\    /   O peration     | Website:  https://openfoam.org
    \\  /    A nd           | Version:  7
     \\/     M anipulation  |
\*---------------------------------------------------------------------------*/
FoamFile
{
    version     2.0;
    format      ascii;
    class       volScalarField;
    location    "600";
    object      nut;
}
// * * * * * * * * * * * * * * * * * * * * * * * * * * * * * * * * * * * * * //

dimensions      [0 2 -1 0 0 0 0];

internalField   nonuniform List<scalar> 
180
(
2.41325e-05
3.3268e-05
6.33974e-05
7.7851e-05
0.000122689
0.000134774
0.000206331
0.000215838
0.000312371
0.000320409
0.000439256
0.000445713
0.000582978
0.00058803
0.000739966
0.000743923
0.000907383
0.000910506
0.00108292
0.00108539
0.00126461
0.00126656
0.00145071
0.00145228
0.00163969
0.00164104
0.00183027
0.00183155
0.00202136
0.00202269
0.00221206
0.00221356
0.00240165
0.00240338
0.00258952
0.00259153
0.00277519
0.00277749
0.00295825
0.00296085
0.00313837
0.00314127
0.00331527
0.00331848
0.00348873
0.00349225
0.00365858
0.00366241
0.00382469
0.00382881
0.00398693
0.00399136
0.00414525
0.00414998
0.00429959
0.00430463
0.00444993
0.00445527
0.00459626
0.00460189
0.00473858
0.00474451
0.00487692
0.00488315
0.00501132
0.00501783
0.00514181
0.00514861
0.00526846
0.00527553
0.00539131
0.00539865
0.00551044
0.00551804
0.00562591
0.00563376
0.0057378
0.00574589
0.00584617
0.0058545
0.0059511
0.00595967
0.00605268
0.00606146
0.00615098
0.00615997
0.00624608
0.00625527
0.00633805
0.00634743
0.00642697
0.00643654
0.00651291
0.00652267
0.00659596
0.00660589
0.00667618
0.00668627
0.00675365
0.0067639
0.00682843
0.00683883
0.00690059
0.00691113
0.00697019
0.00698088
0.0070373
0.00704812
0.00710198
0.00711293
0.00716429
0.00717536
0.00722428
0.00723547
0.007282
0.0072933
0.00733751
0.00734892
0.00739086
0.00740237
0.00744208
0.00745369
0.00749123
0.00750293
0.00753834
0.00755014
0.00758347
0.00759534
0.00762663
0.00763859
0.00766787
0.00767991
0.00770722
0.00771933
0.00774472
0.0077569
0.00778038
0.00779263
0.00781424
0.00782655
0.00784633
0.00785869
0.00787665
0.00788907
0.00790525
0.00791772
0.00793213
0.00794465
0.00795731
0.00796988
0.00798082
0.00799342
0.00800266
0.0080153
0.00802285
0.00803553
0.0080414
0.00805411
0.00805832
0.00807107
0.00807363
0.0080864
0.00808733
0.00810012
0.00809942
0.00811223
0.00810991
0.00812274
0.0081188
0.00813164
0.00812609
0.00813894
0.00813177
0.00814463
0.00813586
0.00814872
0.00813835
0.00815122
0.00813931
0.00815217
)
;

boundaryField
{
    inlet
    {
        type            cyclic;
    }
    outlet
    {
        type            cyclic;
    }
    bottom
    {
        type            symmetry;
    }
    top
    {
        type            nutkWallFunction;
        Cmu             0.09;
        kappa           0.41;
        E               9.8;
        value           uniform 0;
    }
    frontAndBack
    {
        type            empty;
    }
}


// ************************************************************************* //
