/*--------------------------------*- C++ -*----------------------------------*\
  =========                 |
  \\      /  F ield         | OpenFOAM: The Open Source CFD Toolbox
   \\    /   O peration     | Website:  https://openfoam.org
    \\  /    A nd           | Version:  7
     \\/     M anipulation  |
\*---------------------------------------------------------------------------*/
FoamFile
{
    version     2.0;
    format      ascii;
    class       volScalarField;
    location    "600";
    object      omega;
}
// * * * * * * * * * * * * * * * * * * * * * * * * * * * * * * * * * * * * * //

dimensions      [0 0 -1 0 0 0 0];

internalField   nonuniform List<scalar> 
180
(
2592
2592
951.132
895.736
486.597
471.726
301.959
297.255
212.568
210.298
162.366
161.141
131.313
130.587
110.599
110.143
95.9479
95.6629
85.1141
84.9453
76.8287
76.7396
70.3265
70.2897
65.1182
65.1137
60.8758
60.8897
57.3708
57.3944
54.4399
54.4681
51.9631
51.9933
49.8511
49.8819
48.0358
48.0667
46.465
46.4959
45.0977
45.1286
43.9016
43.9325
42.8506
42.8816
41.9236
41.9548
41.1035
41.1348
40.3759
40.4072
39.7287
39.7602
39.1521
39.1836
38.6373
38.6689
38.1772
38.2088
37.7653
37.797
37.3964
37.4281
37.0656
37.0974
36.7689
36.8007
36.5026
36.5345
36.2634
36.2954
36.0487
36.0808
35.8558
35.888
35.6825
35.7148
35.5268
35.5593
35.3869
35.4195
35.2611
35.2939
35.148
35.181
35.0463
35.0795
34.9548
34.9882
34.8724
34.9059
34.7981
34.8318
34.731
34.7649
34.6702
34.7044
34.6152
34.6496
34.5652
34.5998
34.5195
34.5543
34.4777
34.5127
34.4393
34.4745
34.4037
34.4391
34.3707
34.4063
34.3398
34.3756
34.3107
34.3466
34.2831
34.3192
34.2568
34.2931
34.2316
34.268
34.2072
34.2438
34.1835
34.2203
34.1604
34.1973
34.1377
34.1747
34.1154
34.1524
34.0933
34.1304
34.0714
34.1086
34.0497
34.087
34.0282
34.0655
34.0068
34.0441
33.9855
34.0229
33.9644
34.0018
33.9435
33.9809
33.9228
33.9603
33.9024
33.9399
33.8824
33.9198
33.8628
33.9002
33.8436
33.881
33.825
33.8624
33.8071
33.8444
33.7898
33.8272
33.7735
33.8107
33.758
33.7952
33.7435
33.7807
33.7302
33.7673
33.718
33.7551
33.707
33.744
33.6971
33.7341
33.6881
33.725
)
;

boundaryField
{
    inlet
    {
        type            cyclic;
    }
    outlet
    {
        type            cyclic;
    }
    bottom
    {
        type            symmetry;
    }
    top
    {
        beta1           0.075;
        blended         0;
        type            omegaWallFunction;
        value           uniform 2592;
    }
    frontAndBack
    {
        type            empty;
    }
}


// ************************************************************************* //
