/*--------------------------------*- C++ -*----------------------------------*\
  =========                 |
  \\      /  F ield         | OpenFOAM: The Open Source CFD Toolbox
   \\    /   O peration     | Website:  https://openfoam.org
    \\  /    A nd           | Version:  7
     \\/     M anipulation  |
\*---------------------------------------------------------------------------*/
FoamFile
{
    version     2.0;
    format      ascii;
    class       volScalarField;
    location    "600";
    object      p;
}
// * * * * * * * * * * * * * * * * * * * * * * * * * * * * * * * * * * * * * //

dimensions      [0 2 -2 0 0 0 0];

internalField   nonuniform List<scalar> 
180
(
-3.77838e-21
2.40759e-16
6.57842e-21
2.40753e-16
-1.00639e-20
2.4076e-16
-2.85726e-20
2.40791e-16
-5.94496e-20
2.40819e-16
-1.06703e-19
2.40862e-16
-1.71471e-19
2.40924e-16
-2.55312e-20
2.40891e-16
9.65845e-21
2.40854e-16
4.95821e-20
2.40812e-16
9.43307e-20
2.40765e-16
1.43923e-19
2.40714e-16
4.673e-19
2.40659e-16
5.25658e-19
2.40297e-16
2.51266e-19
2.40906e-16
6.86517e-19
2.40471e-16
1.15742e-18
2.39999e-16
1.22988e-18
2.39927e-16
8.36799e-19
2.39851e-16
9.14633e-19
2.39774e-16
9.94088e-19
2.39694e-16
1.07625e-18
2.39612e-16
1.15972e-18
2.39528e-16
1.24534e-18
2.39442e-16
1.33203e-18
2.39355e-16
1.42027e-18
2.39266e-16
1.50939e-18
2.39176e-16
1.59957e-18
2.39086e-16
1.69047e-18
2.38994e-16
1.78196e-18
2.38901e-16
1.87399e-18
2.38808e-16
1.96625e-18
2.38715e-16
2.05886e-18
2.38621e-16
2.15138e-18
2.38528e-16
2.24406e-18
2.38434e-16
2.33637e-18
2.38341e-16
2.42864e-18
2.38247e-16
2.52033e-18
2.38154e-16
2.61176e-18
2.38062e-16
2.70242e-18
2.3797e-16
2.7926e-18
2.3788e-16
2.88186e-18
2.37789e-16
2.97044e-18
2.377e-16
3.05796e-18
2.37612e-16
3.14459e-18
2.37524e-16
3.23004e-18
2.37438e-16
3.31442e-18
2.37353e-16
3.39752e-18
2.37269e-16
3.47937e-18
2.37187e-16
3.55984e-18
2.37106e-16
3.63893e-18
2.37027e-16
3.71654e-18
2.36948e-16
3.79263e-18
2.36872e-16
3.86716e-18
2.36797e-16
3.94006e-18
2.36724e-16
4.01131e-18
2.36652e-16
4.08084e-18
2.36582e-16
4.14865e-18
2.36514e-16
4.21464e-18
2.36447e-16
4.27885e-18
2.36383e-16
4.34116e-18
2.3632e-16
4.40163e-18
2.36259e-16
4.46014e-18
2.36201e-16
4.51675e-18
2.36144e-16
4.57135e-18
2.36089e-16
4.62398e-18
2.36036e-16
4.67456e-18
2.35985e-16
4.72313e-18
2.35936e-16
4.76961e-18
2.35889e-16
4.81403e-18
2.35845e-16
4.85632e-18
2.35802e-16
4.89651e-18
2.35761e-16
4.93455e-18
2.35723e-16
4.97046e-18
2.35687e-16
5.00418e-18
2.35653e-16
5.03574e-18
2.35621e-16
5.06509e-18
2.35592e-16
5.09226e-18
2.35564e-16
5.1172e-18
2.35539e-16
5.13992e-18
2.35516e-16
5.16042e-18
2.35496e-16
5.17867e-18
2.35477e-16
5.19468e-18
2.35461e-16
5.20845e-18
2.35447e-16
5.21995e-18
2.35436e-16
5.22919e-18
2.35427e-16
5.23617e-18
2.3542e-16
5.24088e-18
2.35415e-16
5.24332e-18
2.35412e-16
5.24364e-18
2.35412e-16
)
;

boundaryField
{
    inlet
    {
        type            cyclic;
    }
    outlet
    {
        type            cyclic;
    }
    bottom
    {
        type            symmetry;
    }
    top
    {
        type            zeroGradient;
    }
    frontAndBack
    {
        type            empty;
    }
}


// ************************************************************************* //
