/*--------------------------------*- C++ -*----------------------------------*\
  =========                 |
  \\      /  F ield         | OpenFOAM: The Open Source CFD Toolbox
   \\    /   O peration     | Website:  https://openfoam.org
    \\  /    A nd           | Version:  7
     \\/     M anipulation  |
\*---------------------------------------------------------------------------*/
FoamFile
{
    version     2.0;
    format      ascii;
    class       surfaceScalarField;
    location    "600";
    object      phi;
}
// * * * * * * * * * * * * * * * * * * * * * * * * * * * * * * * * * * * * * //

dimensions      [0 3 -1 0 0 0 0];

internalField   nonuniform List<scalar> 
268
(
0.00115232
1.78243e-19
-1.39361e-19
0.00160408
1.52254e-19
-1.62407e-19
0.00182456
3.01261e-19
-1.71579e-19
0.00194356
2.85893e-19
-1.88544e-19
0.00201584
2.20045e-19
-1.52318e-19
0.0020637
1.33858e-19
-1.04626e-19
0.00209716
-4.61965e-20
1.75589e-21
0.00212153
-5.40868e-20
6.588e-20
0.00213984
-9.57732e-20
1.18476e-19
0.0021539
-1.22668e-19
1.53204e-19
0.00216486
-1.34894e-19
1.83845e-19
0.00217348
-1.71603e-19
1.71473e-19
0.00218028
-1.24023e-19
2.19999e-19
0.00218561
-7.24563e-20
1.00714e-19
0.00218975
-1.35316e-19
2.33118e-19
0.00219289
-1.00468e-19
2.27422e-19
0.00219519
-1.62173e-20
1.67595e-19
0.00219676
7.01796e-20
1.37789e-19
0.0021977
5.68857e-20
1.02158e-19
0.00219808
6.6739e-20
7.23546e-20
0.00219797
6.52879e-20
4.3339e-20
0.00219741
6.37888e-20
2.23791e-20
0.00219645
6.14561e-20
3.12016e-21
0.00219513
5.94464e-20
-9.19479e-21
0.00219347
5.73386e-20
-2.03371e-20
0.00219151
5.57537e-20
-2.6671e-20
0.00218926
5.4506e-20
-3.25738e-20
0.00218674
5.36274e-20
-3.4887e-20
0.00218398
5.30353e-20
-3.69133e-20
0.00218099
5.24128e-20
-3.6325e-20
0.00217778
5.22782e-20
-3.54957e-20
0.00217438
5.17851e-20
-3.27962e-20
0.00217078
5.16923e-20
-2.98081e-20
0.002167
5.17907e-20
-2.52776e-20
0.00216306
5.19559e-20
-2.05381e-20
0.00215896
5.16404e-20
-1.47086e-20
0.00215471
5.16597e-20
-8.84684e-21
0.00215032
5.14425e-20
-2.06626e-21
0.00214579
5.14117e-20
4.81526e-21
0.00214115
5.10664e-20
1.18981e-20
0.00213639
5.10296e-20
1.84518e-20
0.00213153
5.08847e-20
2.52858e-20
0.00212657
5.06746e-20
3.17681e-20
0.00212152
5.0067e-20
3.78399e-20
0.00211638
4.93029e-20
4.30249e-20
0.00211117
4.81448e-20
4.75317e-20
0.00210588
4.67759e-20
5.14689e-20
0.00210054
4.50305e-20
5.50708e-20
0.00209514
4.3045e-20
5.74259e-20
0.00208969
4.07328e-20
5.88308e-20
0.0020842
3.8203e-20
5.95669e-20
0.00207868
3.54318e-20
5.99745e-20
0.00207313
3.25046e-20
5.92994e-20
0.00206756
2.94423e-20
5.79243e-20
0.00206197
2.63028e-20
5.56802e-20
0.00205638
2.31248e-20
5.33844e-20
0.00205079
1.99414e-20
5.08003e-20
0.0020452
1.68042e-20
4.78101e-20
0.00203963
1.37331e-20
4.42904e-20
0.00203408
1.07898e-20
4.06108e-20
0.00202855
7.98928e-21
3.66409e-20
0.00202305
5.39564e-21
3.26992e-20
0.00201759
3.01764e-21
2.86558e-20
0.00201218
9.10928e-22
2.47846e-20
0.00200681
-9.29485e-22
2.0965e-20
0.0020015
-2.47013e-21
1.74238e-20
0.00199626
-3.73819e-21
1.40549e-20
0.00199108
-4.7339e-21
1.10498e-20
0.00198598
-5.52091e-21
8.32305e-21
0.00198096
-6.06037e-21
6.04134e-21
0.00197602
-6.74524e-21
3.67518e-21
0.00197118
-7.54855e-21
1.29874e-21
0.00196643
-8.06397e-21
-8.13821e-22
0.00196178
-8.33072e-21
-2.61057e-21
0.00195724
-8.39502e-21
-4.12927e-21
0.00195281
-8.28435e-21
-5.28982e-21
0.0019485
-8.03201e-21
-6.15329e-21
0.0019443
-7.65926e-21
-6.6847e-21
0.00194024
-7.1909e-21
-6.9492e-21
0.0019363
-6.64319e-21
-6.93691e-21
0.0019325
-6.03397e-21
-6.8973e-21
0.00192884
-5.3751e-21
-6.80125e-21
0.00192531
-4.67949e-21
-6.48088e-21
0.00192193
-3.95431e-21
-5.96259e-21
0.0019187
-3.20973e-21
-5.29496e-21
0.00191561
-2.45048e-21
-4.50462e-21
0.00191267
-1.68463e-21
-3.62319e-21
0.00190988
-9.17385e-22
-2.67197e-21
0.00190724
-1.53264e-22
-1.67644e-21
0.00190476
)
;

boundaryField
{
    inlet
    {
        type            cyclic;
        value           nonuniform List<scalar> 
90
(
-0.00115232
-0.00160408
-0.00182456
-0.00194356
-0.00201584
-0.0020637
-0.00209716
-0.00212153
-0.00213984
-0.0021539
-0.00216486
-0.00217348
-0.00218028
-0.00218561
-0.00218975
-0.00219289
-0.00219519
-0.00219676
-0.0021977
-0.00219808
-0.00219797
-0.00219741
-0.00219645
-0.00219513
-0.00219347
-0.00219151
-0.00218926
-0.00218674
-0.00218398
-0.00218099
-0.00217778
-0.00217438
-0.00217078
-0.002167
-0.00216306
-0.00215896
-0.00215471
-0.00215032
-0.00214579
-0.00214115
-0.00213639
-0.00213153
-0.00212657
-0.00212152
-0.00211638
-0.00211117
-0.00210588
-0.00210054
-0.00209514
-0.00208969
-0.0020842
-0.00207868
-0.00207313
-0.00206756
-0.00206197
-0.00205638
-0.00205079
-0.0020452
-0.00203963
-0.00203408
-0.00202855
-0.00202305
-0.00201759
-0.00201218
-0.00200681
-0.0020015
-0.00199626
-0.00199108
-0.00198598
-0.00198096
-0.00197602
-0.00197118
-0.00196643
-0.00196178
-0.00195724
-0.00195281
-0.0019485
-0.0019443
-0.00194024
-0.0019363
-0.0019325
-0.00192884
-0.00192531
-0.00192193
-0.0019187
-0.00191561
-0.00191267
-0.00190988
-0.00190724
-0.00190476
)
;
    }
    outlet
    {
        type            cyclic;
        value           nonuniform List<scalar> 
90
(
0.00115232
0.00160408
0.00182456
0.00194356
0.00201584
0.0020637
0.00209716
0.00212153
0.00213984
0.0021539
0.00216486
0.00217348
0.00218028
0.00218561
0.00218975
0.00219289
0.00219519
0.00219676
0.0021977
0.00219808
0.00219797
0.00219741
0.00219645
0.00219513
0.00219347
0.00219151
0.00218926
0.00218674
0.00218398
0.00218099
0.00217778
0.00217438
0.00217078
0.002167
0.00216306
0.00215896
0.00215471
0.00215032
0.00214579
0.00214115
0.00213639
0.00213153
0.00212657
0.00212152
0.00211638
0.00211117
0.00210588
0.00210054
0.00209514
0.00208969
0.0020842
0.00207868
0.00207313
0.00206756
0.00206197
0.00205638
0.00205079
0.0020452
0.00203963
0.00203408
0.00202855
0.00202305
0.00201759
0.00201218
0.00200681
0.0020015
0.00199626
0.00199108
0.00198598
0.00198096
0.00197602
0.00197118
0.00196643
0.00196178
0.00195724
0.00195281
0.0019485
0.0019443
0.00194024
0.0019363
0.0019325
0.00192884
0.00192531
0.00192193
0.0019187
0.00191561
0.00191267
0.00190988
0.00190724
0.00190476
)
;
    }
    bottom
    {
        type            symmetry;
        value           uniform 0;
    }
    top
    {
        type            calculated;
        value           uniform 0;
    }
    frontAndBack
    {
        type            empty;
        value           nonuniform 0();
    }
}


// ************************************************************************* //
