/*--------------------------------*- C++ -*----------------------------------*\
  =========                 |
  \\      /  F ield         | OpenFOAM: The Open Source CFD Toolbox
   \\    /   O peration     | Website:  https://openfoam.org
    \\  /    A nd           | Version:  7
     \\/     M anipulation  |
\*---------------------------------------------------------------------------*/
FoamFile
{
    version     2.0;
    format      ascii;
    class       volVectorField;
    location    "600";
    object      U;
}
// * * * * * * * * * * * * * * * * * * * * * * * * * * * * * * * * * * * * * //

dimensions      [0 1 -1 0 0 0 0];

internalField   nonuniform List<vector> 
180
(
(1.01364 4.39084e-19 0)
(1.05385 -2.01401e-19 0)
(1.44321 2.66408e-19 0)
(1.44099 -3.35727e-19 0)
(1.64416 5.1804e-19 0)
(1.63832 -3.49869e-19 0)
(1.7499 6.08786e-19 0)
(1.74745 -3.70657e-19 0)
(1.81417 5.23713e-19 0)
(1.81361 -3.6019e-19 0)
(1.85714 3.5052e-19 0)
(1.85698 -2.65214e-19 0)
(1.88732 7.32998e-20 0)
(1.88716 -9.53598e-20 0)
(1.90934 -9.92934e-20 0)
(1.9091 6.9662e-20 0)
(1.92588 -1.60234e-19 0)
(1.92557 1.90955e-19 0)
(1.93859 -2.2133e-19 0)
(1.93821 2.77043e-19 0)
(1.9485 -2.67898e-19 0)
(1.94806 3.45269e-19 0)
(1.9563 -3.14309e-19 0)
(1.9558 3.70456e-19 0)
(1.96246 -2.87487e-19 0)
(1.96189 3.76977e-19 0)
(1.9673 -2.01473e-19 0)
(1.96667 3.16541e-19 0)
(1.97106 -2.1822e-19 0)
(1.97037 3.50568e-19 0)
(1.97392 -2.39878e-19 0)
(1.97318 4.59352e-19 0)
(1.97602 -1.18212e-19 0)
(1.97523 4.05408e-19 0)
(1.97746 5.8332e-20 0)
(1.97662 3.08156e-19 0)
(1.97833 1.36355e-19 0)
(1.97745 2.3917e-19 0)
(1.97869 1.33713e-19 0)
(1.97777 1.7239e-19 0)
(1.97861 1.32701e-19 0)
(1.97765 1.12974e-19 0)
(1.97813 1.29386e-19 0)
(1.97713 6.3065e-20 0)
(1.97729 1.25427e-19 0)
(1.97625 2.29841e-20 0)
(1.97612 1.20994e-19 0)
(1.97504 -8.20982e-21 0)
(1.97465 1.16685e-19 0)
(1.97353 -3.12497e-20 0)
(1.9729 1.12961e-19 0)
(1.97175 -4.8298e-20 0)
(1.9709 1.10115e-19 0)
(1.9697 -6.04629e-20 0)
(1.96866 1.07986e-19 0)
(1.96742 -6.84259e-20 0)
(1.96619 1.06724e-19 0)
(1.96492 -7.26555e-20 0)
(1.96352 1.05338e-19 0)
(1.96221 -7.39648e-20 0)
(1.96065 1.04592e-19 0)
(1.95931 -7.2495e-20 0)
(1.95761 1.04351e-19 0)
(1.95622 -6.87188e-20 0)
(1.95439 1.03107e-19 0)
(1.95297 -6.3308e-20 0)
(1.95101 1.03449e-19 0)
(1.94955 -5.53784e-20 0)
(1.94748 1.04038e-19 0)
(1.94598 -4.63647e-20 0)
(1.9438 1.03562e-19 0)
(1.94227 -3.53869e-20 0)
(1.94 1.03301e-19 0)
(1.93843 -2.39128e-20 0)
(1.93606 1.0313e-19 0)
(1.93446 -1.11848e-20 0)
(1.93201 1.02911e-19 0)
(1.93038 2.55881e-21 0)
(1.92785 1.02553e-19 0)
(1.92618 1.6927e-20 0)
(1.92359 1.01939e-19 0)
(1.92188 3.03824e-20 0)
(1.91923 1.02031e-19 0)
(1.91749 4.36042e-20 0)
(1.91478 1.01695e-19 0)
(1.913 5.73026e-20 0)
(1.91025 1.00887e-19 0)
(1.90844 6.99255e-20 0)
(1.90564 9.95238e-20 0)
(1.9038 8.12309e-20 0)
(1.90097 9.76057e-20 0)
(1.89909 9.1009e-20 0)
(1.89623 9.50819e-20 0)
(1.89432 9.89344e-20 0)
(1.89144 9.19663e-20 0)
(1.88949 1.07075e-19 0)
(1.8866 8.82297e-20 0)
(1.88462 1.13039e-19 0)
(1.88171 8.392e-20 0)
(1.8797 1.16794e-19 0)
(1.87679 7.90608e-20 0)
(1.87474 1.18367e-19 0)
(1.87184 7.37384e-20 0)
(1.86975 1.20029e-19 0)
(1.86686 6.80166e-20 0)
(1.86474 1.19714e-19 0)
(1.86186 6.20035e-20 0)
(1.85971 1.17611e-19 0)
(1.85685 5.57797e-20 0)
(1.85467 1.13935e-19 0)
(1.85184 4.94416e-20 0)
(1.84962 1.08912e-19 0)
(1.84682 4.30608e-20 0)
(1.84457 1.04483e-19 0)
(1.84181 3.67208e-20 0)
(1.83952 9.88391e-20 0)
(1.83681 3.04927e-20 0)
(1.83449 9.22655e-20 0)
(1.83183 2.4458e-20 0)
(1.82947 8.50104e-20 0)
(1.82687 1.86944e-20 0)
(1.82448 7.73107e-20 0)
(1.82194 1.32814e-20 0)
(1.81952 6.93555e-20 0)
(1.81704 8.29297e-21 0)
(1.81459 6.13313e-20 0)
(1.81219 3.79531e-21 0)
(1.8097 5.3383e-20 0)
(1.80738 -1.59738e-22 0)
(1.80485 4.56618e-20 0)
(1.80262 -3.54248e-21 0)
(1.80006 3.82746e-20 0)
(1.79791 -6.34542e-21 0)
(1.79532 3.13403e-20 0)
(1.79327 -8.59388e-21 0)
(1.79065 2.4944e-20 0)
(1.7887 -1.03475e-20 0)
(1.78604 1.91892e-20 0)
(1.78419 -1.17254e-20 0)
(1.7815 1.41556e-20 0)
(1.77977 -1.25204e-20 0)
(1.77704 9.9535e-21 0)
(1.77542 -1.44523e-20 0)
(1.77267 4.79153e-21 0)
(1.77116 -1.57445e-20 0)
(1.76838 3.57494e-22 0)
(1.767 -1.65054e-20 0)
(1.76418 -3.57697e-21 0)
(1.76293 -1.68187e-20 0)
(1.76007 -6.90354e-21 0)
(1.75895 -1.67571e-20 0)
(1.75607 -9.58436e-21 0)
(1.75509 -1.63808e-20 0)
(1.75217 -1.16035e-20 0)
(1.75133 -1.57441e-20 0)
(1.74839 -1.29887e-20 0)
(1.74769 -1.4893e-20 0)
(1.74471 -1.37719e-20 0)
(1.74416 -1.38683e-20 0)
(1.74115 -1.401e-20 0)
(1.74075 -1.27041e-20 0)
(1.73772 -1.37529e-20 0)
(1.73747 -1.143e-20 0)
(1.7344 -1.38268e-20 0)
(1.73432 -1.00705e-20 0)
(1.73122 -1.33885e-20 0)
(1.73129 -8.64552e-21 0)
(1.72816 -1.25297e-20 0)
(1.72839 -7.17214e-21 0)
(1.72523 -1.13259e-20 0)
(1.72563 -5.66504e-21 0)
(1.72244 -9.85246e-21 0)
(1.723 -4.13685e-21 0)
(1.71978 -8.16775e-21 0)
(1.7205 -2.60091e-21 0)
(1.71725 -6.32436e-21 0)
(1.71814 -1.10837e-21 0)
(1.71487 -4.32638e-21 0)
(1.71593 -8.44875e-23 0)
(1.71263 -1.8026e-21 0)
)
;

boundaryField
{
    inlet
    {
        type            cyclic;
    }
    outlet
    {
        type            cyclic;
    }
    bottom
    {
        type            symmetry;
    }
    top
    {
        type            noSlip;
    }
    frontAndBack
    {
        type            empty;
    }
}


// ************************************************************************* //
