/*--------------------------------*- C++ -*----------------------------------*\
  =========                 |
  \\      /  F ield         | OpenFOAM: The Open Source CFD Toolbox
   \\    /   O peration     | Website:  https://openfoam.org
    \\  /    A nd           | Version:  7
     \\/     M anipulation  |
\*---------------------------------------------------------------------------*/
FoamFile
{
    version     2.0;
    format      ascii;
    class       volScalarField;
    location    "150";
    object      k;
}
// * * * * * * * * * * * * * * * * * * * * * * * * * * * * * * * * * * * * * //

dimensions      [0 2 -2 0 0 0 0];

internalField   nonuniform List<scalar> 
12842
(
0.00567189
0.00506654
0.00470661
0.00445668
0.00429613
0.00416458
0.004091
0.00401856
0.0039911
0.00396057
0.00396455
0.00398387
0.00403556
0.00411255
0.0042102
0.00426918
0.00434707
0.00439946
0.00444418
0.00447457
0.00450135
0.00452085
0.00454019
0.00562938
0.00499904
0.00465216
0.00440676
0.00426497
0.00414795
0.0040757
0.00401105
0.00398083
0.00395485
0.00395974
0.00398129
0.00403817
0.00411796
0.0042152
0.00427245
0.00434992
0.00440598
0.00445097
0.00448526
0.0045142
0.0045347
0.00455451
0.00557379
0.00493137
0.00459117
0.00436066
0.00422208
0.00411129
0.00404799
0.00398741
0.00396014
0.00394357
0.00395266
0.00398181
0.00404883
0.00414477
0.00423815
0.0042931
0.00436852
0.00442079
0.00446997
0.00449856
0.00452787
0.0045494
0.0045687
0.00550449
0.00484329
0.00451858
0.00430757
0.00419008
0.00408985
0.0040288
0.00397699
0.00394634
0.00393542
0.0039477
0.00398368
0.00405594
0.00415963
0.00425567
0.00430538
0.0043781
0.00442881
0.00447869
0.00451699
0.00454433
0.00456472
0.00458286
0.00543897
0.00476684
0.00444797
0.00425124
0.0041461
0.00405606
0.0040046
0.00395622
0.00392972
0.0039282
0.00394283
0.00398496
0.00407488
0.00418975
0.00427919
0.0043299
0.00440083
0.00444948
0.00449843
0.00453226
0.00456715
0.00458837
0.00460529
0.00535703
0.00468724
0.00438185
0.00420378
0.00411468
0.00403591
0.00398667
0.00394692
0.00391797
0.0039213
0.00393995
0.00398796
0.00408414
0.00420697
0.00429843
0.00434533
0.00441512
0.00446425
0.00451218
0.00455071
0.00458269
0.00460978
0.00462559
0.00528788
0.00461661
0.00431837
0.00415212
0.00407569
0.0040071
0.00396776
0.00393026
0.00390832
0.00391576
0.00393176
0.00399167
0.00410838
0.00423593
0.00431919
0.00436726
0.00443672
0.00448871
0.00454024
0.00457484
0.00460803
0.00463223
0.0046499
0.00520572
0.0045519
0.00426506
0.00411395
0.00404795
0.00398938
0.00395167
0.00392168
0.00389972
0.00390938
0.00393301
0.00399805
0.00412246
0.0042561
0.00433959
0.00438434
0.00445281
0.00450546
0.00455896
0.00459745
0.00462977
0.00465804
0.00467334
0.0051346
0.00449226
0.00421409
0.00407305
0.00401779
0.00396884
0.00393912
0.00391057
0.003895
0.00390616
0.00393558
0.00400152
0.00413837
0.00427744
0.00435635
0.00440406
0.00447524
0.00453217
0.00458859
0.00462585
0.0046558
0.00468282
0.00469994
0.00504195
0.00443146
0.0041703
0.00404397
0.0039964
0.00395573
0.00392755
0.00390462
0.00389126
0.00390433
0.00394157
0.00401571
0.00415913
0.00429447
0.00437136
0.00441817
0.00449186
0.00455232
0.00461089
0.00464816
0.00467706
0.00470367
0.00471885
0.00496193
0.00437649
0.00412751
0.0040114
0.00397258
0.00394041
0.00391778
0.00389676
0.00388832
0.00389673
0.00394506
0.00402284
0.00417943
0.00431551
0.00438855
0.00443926
0.00451641
0.00457997
0.00463854
0.00467286
0.00470053
0.00472564
0.00474124
0.00486969
0.00432405
0.00409198
0.00398742
0.00395426
0.00392898
0.00390761
0.00389151
0.00388555
0.00389876
0.00395276
0.00403991
0.00420399
0.00433565
0.00440775
0.00445949
0.00453966
0.00460648
0.00466521
0.00469571
0.00472245
0.00474776
0.00476178
0.00479083
0.00427621
0.00405646
0.00396032
0.00393355
0.00391573
0.0038984
0.00388504
0.00388314
0.00390139
0.00395747
0.0040477
0.00422582
0.00435917
0.00442931
0.00448775
0.00457115
0.00463862
0.00469357
0.00472193
0.00474684
0.00476977
0.00478287
0.00471532
0.00423212
0.00402868
0.00394072
0.00391829
0.00390568
0.00388994
0.00388077
0.00388107
0.00390583
0.00396537
0.00406566
0.00425331
0.00438413
0.00445469
0.00451514
0.00460004
0.00466977
0.00472205
0.00474614
0.00477087
0.00479435
0.00480771
0.00465502
0.00419179
0.00400028
0.0039185
0.00390015
0.00389371
0.00388117
0.00387567
0.00387968
0.00390871
0.0039709
0.00407548
0.00427892
0.00441196
0.00448276
0.00455126
0.00463717
0.00470433
0.0047503
0.00477411
0.00479784
0.00481963
0.00483034
0.00459685
0.00415523
0.0039791
0.00390236
0.00388762
0.0038845
0.00387436
0.00387242
0.00387953
0.00391279
0.00397953
0.00409682
0.00431193
0.00444392
0.00451532
0.00458465
0.00467116
0.00473888
0.00478041
0.00480265
0.00482648
0.00484589
0.00485862
0.00455034
0.00412206
0.00395696
0.00388418
0.00387193
0.0038729
0.00386673
0.00386851
0.00387525
0.00391494
0.00398574
0.00411049
0.00434501
0.00447778
0.00455133
0.00462642
0.00471068
0.00477241
0.00480821
0.00483173
0.00485684
0.00487288
0.00488254
0.00450514
0.00409172
0.0039407
0.00387082
0.00386128
0.00386393
0.00386101
0.00386611
0.00387546
0.00391993
0.00399797
0.00413739
0.00438566
0.00451669
0.0045889
0.00466116
0.00474483
0.00480575
0.00483843
0.00486729
0.0048883
0.00489675
0.00490569
0.00446886
0.00406513
0.00392347
0.00385598
0.00384765
0.00385287
0.00385439
0.0038631
0.00387101
0.00392162
0.00400552
0.00415653
0.00442581
0.00455506
0.00462868
0.00470349
0.00478329
0.00483696
0.00486975
0.00490017
0.00491572
0.00492487
0.00493874
0.00443315
0.00404034
0.00391037
0.00384495
0.0038378
0.00384385
0.00384918
0.00386108
0.00387031
0.00392912
0.00402376
0.00419223
0.00447348
0.00459689
0.0046662
0.00473565
0.00481274
0.00486526
0.00489836
0.00493771
0.00495154
0.00496279
0.00499435
0.0044046
0.00401934
0.00389669
0.00383264
0.00382594
0.00383339
0.00384333
0.00385841
0.00386889
0.00393174
0.00403327
0.00421797
0.00451491
0.00463623
0.0047039
0.00477234
0.00484968
0.00489625
0.00493877
0.00497746
0.00499314
0.00502367
0.00506434
0.00437607
0.0039987
0.00388525
0.00382334
0.00381632
0.00382436
0.0038384
0.00385666
0.00387174
0.00394159
0.00405757
0.0042621
0.00456227
0.00467275
0.00473563
0.00480175
0.00487586
0.00492287
0.00497127
0.00501963
0.00504636
0.00508824
0.00512878
0.00435359
0.00398194
0.00387404
0.00381273
0.00380574
0.00381463
0.00383246
0.00385398
0.00387472
0.00394653
0.00407034
0.00429878
0.00460447
0.00471056
0.00476897
0.00483496
0.00491186
0.0049548
0.00501526
0.00506468
0.00509108
0.00514006
0.00521502
0.00433427
0.00396829
0.00386724
0.00380714
0.00379827
0.00380733
0.00382898
0.00385345
0.00388081
0.00395913
0.00409782
0.00434019
0.0046332
0.00473657
0.00479322
0.00486347
0.00493824
0.00498568
0.00505507
0.00510769
0.00514338
0.0052494
0.00547001
0.0043207
0.00395923
0.00386306
0.00380318
0.00379302
0.00380206
0.00382602
0.0038535
0.00388501
0.0039686
0.00411987
0.00438546
0.00466482
0.00476154
0.0048185
0.00489727
0.00497251
0.00501423
0.00508555
0.00516036
0.0052677
0.00562681
0.00665193
0.00430711
0.00395043
0.00385856
0.00379959
0.00378866
0.00379792
0.00382348
0.00385327
0.0038887
0.0039789
0.00414327
0.004424
0.00468717
0.00477656
0.00483957
0.00492582
0.00499605
0.00504376
0.00512512
0.00528026
0.00576267
0.00766814
0.0133109
0.00429465
0.00394212
0.00385442
0.00379582
0.00378438
0.00379361
0.00382075
0.00385303
0.00389236
0.00398877
0.00416851
0.00446611
0.00471258
0.00479699
0.00486277
0.00496257
0.00503238
0.00508204
0.00524277
0.00578883
0.00843249
0.0189068
0.0474556
0.00428229
0.00393385
0.00384964
0.00379205
0.00378088
0.00379043
0.00381851
0.00385264
0.00389547
0.00399786
0.0041902
0.00449948
0.00472739
0.00480945
0.00488632
0.00499626
0.00506816
0.00513954
0.00559033
0.00818926
0.021916
0.0703532
0.203039
0.00427071
0.00392608
0.00384526
0.00378842
0.00377768
0.00378707
0.00381633
0.00385185
0.00389828
0.00400788
0.00421779
0.00453381
0.00474581
0.004828
0.00491111
0.00503399
0.00511693
0.00537809
0.00716568
0.0189596
0.0757393
0.273861
0.799801
0.00425935
0.00391828
0.00384007
0.00378458
0.00377505
0.00378468
0.00381452
0.00385101
0.00390049
0.00401649
0.00423847
0.00456222
0.00475571
0.004841
0.00493676
0.00507666
0.00519815
0.00605746
0.0133394
0.0599991
0.282437
1.08983
2.81396
0.00424847
0.0039109
0.00383516
0.00378112
0.00377269
0.00378199
0.00381283
0.00384933
0.00390266
0.00402634
0.00426542
0.00458953
0.00477236
0.00486031
0.00496372
0.00512122
0.00550301
0.00858349
0.0336936
0.18098
0.836201
2.45406
5.05623
0.00423783
0.00390357
0.00382945
0.00377739
0.00377064
0.00378003
0.00381114
0.00384719
0.00390431
0.0040349
0.00428619
0.00461473
0.00478162
0.0048758
0.00499411
0.00520725
0.00616363
0.0161293
0.0919879
0.495649
1.72752
4.13408
7.8449
0.00422756
0.00389651
0.00382386
0.00377407
0.00376865
0.00377765
0.00380947
0.00384462
0.00390652
0.00404456
0.00431038
0.0046378
0.00479879
0.00489748
0.00502668
0.00540204
0.00830341
0.0352529
0.221413
0.947924
2.79368
6.07448
9.92801
0.00421734
0.0038896
0.00381771
0.00377064
0.00376673
0.00377577
0.00380749
0.00384135
0.00390845
0.00405375
0.00433235
0.00466153
0.00481069
0.00491457
0.00507769
0.00588546
0.0138648
0.0793402
0.405483
1.43435
3.70403
7.05219
9.29293
0.00420769
0.00388282
0.00381148
0.00376737
0.00376462
0.00377349
0.00380534
0.0038385
0.00391067
0.00406289
0.00435225
0.00468241
0.00482651
0.0049413
0.00517162
0.00678315
0.021962
0.132129
0.590204
1.84752
4.35151
7.29799
8.34395
0.00419767
0.00387625
0.00380511
0.00376434
0.00376245
0.00377158
0.00380281
0.00383449
0.00391267
0.00407266
0.00437777
0.00470597
0.00484773
0.00496675
0.00533094
0.00854433
0.0397018
0.202252
0.752772
2.17374
4.82136
7.53555
7.58826
0.00418871
0.0038697
0.00379849
0.00376105
0.00375987
0.00376941
0.00380005
0.00383206
0.00391481
0.00408305
0.0044018
0.00472517
0.00486325
0.00502548
0.00577724
0.0126084
0.0588929
0.264297
0.882586
2.43176
5.08351
7.01536
7.05156
0.0041788
0.0038633
0.0037922
0.00375838
0.00375735
0.00376761
0.00379702
0.00382808
0.00391666
0.00409351
0.00442462
0.00474751
0.00489444
0.0050913
0.00630058
0.0166312
0.080843
0.309002
0.97285
2.63761
5.21578
6.82073
6.75599
0.00417059
0.00385691
0.00378561
0.00375511
0.00375428
0.00376573
0.00379388
0.00382617
0.00391953
0.00410503
0.0044551
0.00476988
0.00492451
0.00528885
0.00796762
0.02688
0.112437
0.36608
1.08161
2.8508
5.37658
6.53056
6.47581
0.00416093
0.00385051
0.00377958
0.00375261
0.00375159
0.00376424
0.00379066
0.00382328
0.00392149
0.00411678
0.0044817
0.00478949
0.00498077
0.00549477
0.00950884
0.0349064
0.137075
0.440351
1.21562
3.05994
5.45715
6.24312
6.22393
0.00415344
0.00384424
0.00377344
0.0037495
0.00374836
0.00376278
0.00378749
0.00382175
0.00392432
0.0041303
0.00451975
0.00481274
0.00504824
0.0061522
0.0146027
0.0594314
0.209536
0.563586
1.44842
3.45326
5.42378
5.96333
5.98795
0.00414434
0.0038378
0.00376782
0.00374697
0.00374575
0.00376161
0.00378443
0.00382103
0.00392763
0.00414433
0.00454432
0.00484879
0.00518505
0.00686119
0.0190182
0.0787341
0.266609
0.766773
1.96472
3.91081
5.3455
5.70643
5.71946
0.00413746
0.00383173
0.00376224
0.00374412
0.00374286
0.00376056
0.00378147
0.00382064
0.00393053
0.00416095
0.00458197
0.00487867
0.00534123
0.00876336
0.0336667
0.146143
0.467518
1.24924
2.72018
4.35821
5.33044
5.5921
5.54916
0.00412925
0.00382544
0.00375714
0.00374157
0.00374055
0.00375961
0.00377886
0.00382051
0.00393485
0.00418082
0.00461949
0.00494622
0.00569423
0.0114892
0.0485261
0.224921
0.817563
2.05975
3.6514
4.78961
5.34728
5.55281
5.52408
0.00412279
0.00381972
0.00375207
0.00373897
0.00373834
0.00375881
0.00377618
0.0038205
0.00394062
0.00420444
0.00464848
0.00500339
0.00610023
0.0169352
0.0993297
0.458267
1.40836
3.03258
4.62412
5.24376
5.47089
5.6035
5.66065
0.00411571
0.00381377
0.00374777
0.00373656
0.00373645
0.003758
0.0037742
0.00382071
0.0039464
0.00422404
0.00468636
0.00513641
0.00721061
0.0269188
0.149278
0.719291
2.12141
4.20941
5.67135
5.90668
5.89521
5.95335
6.07393
0.00410945
0.00380854
0.00374321
0.0037342
0.00373476
0.00375722
0.00377215
0.00382099
0.00395285
0.00425215
0.00471201
0.00526251
0.00857424
0.0438599
0.28623
1.16567
3.09172
5.56975
6.66131
6.66137
6.55092
6.54313
6.68417
0.00410357
0.0038031
0.00373977
0.00373202
0.00373376
0.00375644
0.00377023
0.00382136
0.00395991
0.00427158
0.00475546
0.00554755
0.0120249
0.0736283
0.418176
1.79451
4.21826
7.22583
7.81485
7.70263
7.5486
7.30153
7.34509
0.00409738
0.00379859
0.00373612
0.00373008
0.00373206
0.00375562
0.00376939
0.00382189
0.00396897
0.00429027
0.00479251
0.00590502
0.0156386
0.10346
0.649876
2.47887
5.87926
8.9316
9.07753
8.94259
8.68262
8.21535
8.05065
0.00409314
0.00379432
0.0037339
0.00372863
0.00373059
0.00375507
0.0037679
0.00382274
0.00397908
0.00430284
0.00486091
0.00627774
0.0205807
0.158282
0.971048
3.69752
7.86998
10.3712
10.3019
9.92999
9.43311
8.93099
8.56606
0.0040887
0.00379151
0.00373166
0.00372756
0.00372925
0.00375465
0.00376752
0.00382361
0.00398205
0.00431116
0.00491764
0.00682074
0.0287275
0.229098
1.3995
5.24468
9.57649
11.3491
11.096
10.5594
9.8113
9.16488
8.69514
0.00408641
0.00378917
0.0037308
0.00372691
0.0037287
0.00375416
0.00376751
0.00382558
0.00398574
0.00432059
0.00498548
0.00730319
0.0354734
0.303329
1.97284
6.60578
10.7483
11.975
11.5739
10.726
9.81476
9.10984
8.59099
0.00408369
0.0037877
0.00372968
0.00372525
0.00372844
0.0037538
0.00376813
0.00382957
0.00398852
0.00433326
0.00501803
0.00766082
0.0428391
0.416488
2.53122
7.58835
11.4199
12.2389
11.6568
10.5818
9.528
8.77558
8.24088
0.00408246
0.0037867
0.00372875
0.00372512
0.00372936
0.00375325
0.00376865
0.003835
0.00399848
0.00435419
0.00507383
0.00855422
0.0582719
0.528548
2.95942
8.23445
11.8101
12.2158
11.3818
10.0767
9.01065
8.28253
7.76239
0.00408089
0.00378608
0.003728
0.00372486
0.00373067
0.00375286
0.00376933
0.00383973
0.00400702
0.00437034
0.00510462
0.00930329
0.0664991
0.580896
3.22101
8.57392
11.8558
11.8512
10.6776
9.36838
8.40722
7.74347
7.25633
0.00408025
0.00378585
0.00372796
0.00372525
0.0037305
0.00375249
0.00377039
0.00384615
0.00401943
0.00439035
0.0051546
0.00912005
0.063861
0.579393
3.37094
8.81215
11.5975
11.1097
9.8186
8.66877
7.85758
7.2588
6.81002
0.0040793
0.00378569
0.00372794
0.00372518
0.00373057
0.00375209
0.00377096
0.00385115
0.0040294
0.00440466
0.00516298
0.00855779
0.0557015
0.53293
3.39114
8.86157
11.1499
10.3647
9.08017
8.07949
7.41307
6.87373
6.46121
0.00407875
0.00378546
0.00372808
0.00372512
0.00373114
0.00375173
0.00377152
0.00385621
0.00403973
0.0044184
0.00516445
0.00801929
0.0463995
0.459709
3.32548
8.80718
10.6008
9.61681
8.37254
7.51448
6.9872
6.51704
6.13628
0.00407773
0.00378518
0.00372815
0.00372514
0.0037308
0.00375129
0.0037721
0.00386108
0.00405031
0.00443235
0.00518263
0.00749622
0.0378149
0.375596
3.13151
8.67881
10.0059
8.90935
7.74883
7.0483
6.61649
6.20691
5.84007
0.00407699
0.00378489
0.00372821
0.00372548
0.0037309
0.00375087
0.00377283
0.00386605
0.0040618
0.0044479
0.00518547
0.00702592
0.0312705
0.300194
2.80673
8.46426
9.40497
8.26633
7.23825
6.66488
6.30522
5.95173
5.59821
0.00407584
0.00378428
0.00372815
0.00372509
0.00373034
0.00375035
0.00377403
0.00387069
0.00407319
0.00446337
0.00517689
0.0069468
0.023815
0.224241
2.37176
8.15872
8.78645
7.70445
6.81818
6.35207
6.05044
5.74863
5.41843
0.00407478
0.00378371
0.00372817
0.00372427
0.00372941
0.00375
0.0037751
0.00387547
0.00408569
0.0044817
0.00517131
0.00683508
0.0205304
0.174624
1.89836
7.74381
8.12864
7.21552
6.48449
6.10491
5.85014
5.59168
5.29513
0.00407353
0.00378282
0.00372834
0.00372313
0.00372834
0.00374954
0.00377674
0.00387983
0.00409745
0.00449843
0.00518474
0.00660556
0.0184147
0.149037
1.43793
7.23193
7.48455
6.80455
6.23227
5.91942
5.69969
5.47661
5.21306
0.00407205
0.00378179
0.00372858
0.00372194
0.00372717
0.00374926
0.00377842
0.0038843
0.00411029
0.00451803
0.00517216
0.00647595
0.01664
0.120173
1.11464
6.62514
6.92093
6.47867
6.08962
5.81166
5.59508
5.39973
5.16227
0.00407068
0.00378069
0.00372792
0.0037205
0.00372605
0.0037488
0.00378001
0.00388821
0.00412128
0.00453479
0.00517719
0.00638046
0.0165908
0.1123
0.915151
5.99974
6.42633
6.21667
5.93856
5.72946
5.52905
5.35022
5.12773
0.00406884
0.00377916
0.00372691
0.00371926
0.00372485
0.00374844
0.0037819
0.00389209
0.0041331
0.00455426
0.00516975
0.00638038
0.0151392
0.105636
0.78957
5.44065
5.94439
5.88598
5.87229
5.70639
5.51419
5.32364
5.10091
0.0040672
0.00377788
0.00372576
0.00371775
0.00372386
0.00374793
0.00378345
0.0038952
0.00414176
0.0045702
0.00517775
0.00637386
0.0157058
0.102021
0.709247
5.02543
5.60959
5.74925
5.83589
5.70503
5.52377
5.31059
5.07495
0.00406519
0.00377594
0.00372461
0.00371656
0.00372273
0.0037475
0.00378479
0.00389814
0.00415151
0.00459029
0.00517434
0.00637403
0.0156234
0.0990008
0.706921
4.76282
5.38005
5.6919
5.81965
5.71286
5.54216
5.30647
5.04561
0.00406308
0.0037744
0.00372337
0.00371509
0.00372186
0.00374693
0.00378606
0.00390023
0.00415739
0.00460599
0.00517761
0.00636008
0.0147472
0.097296
0.705419
4.65325
5.26933
5.6758
5.81569
5.72388
5.55748
5.30099
5.00871
0.00406111
0.00377222
0.00372231
0.00371401
0.00372082
0.00374648
0.00378663
0.00390217
0.0041656
0.00462757
0.00520636
0.00629205
0.0155761
0.0947199
0.704551
4.59224
5.216
5.6873
5.81564
5.73117
5.56458
5.28033
4.96341
0.00405852
0.00377033
0.00372098
0.00371261
0.00372002
0.00374592
0.00378669
0.00390358
0.00417019
0.00464547
0.00524832
0.00631971
0.015511
0.101237
0.708131
4.6132
5.21931
5.7197
5.81582
5.73254
5.56014
5.24057
4.90127
0.00405645
0.00376819
0.00372004
0.00371163
0.00371898
0.00374557
0.00378719
0.00390518
0.00417966
0.00466596
0.00529215
0.00635629
0.0150577
0.100924
0.783626
4.70772
5.26522
5.7643
5.81601
5.72937
5.54885
5.19049
4.82678
0.00405374
0.00376592
0.00371857
0.00371029
0.00371828
0.00374501
0.00378807
0.0039069
0.00418567
0.00468714
0.00534669
0.0064418
0.0162162
0.10159
0.908153
4.84485
5.34139
5.81408
5.82468
5.72965
5.53279
5.14687
4.77611
0.00405117
0.00376407
0.0037177
0.00370935
0.00371718
0.00374442
0.00378802
0.00390959
0.0042002
0.00470633
0.00537696
0.00658509
0.0164539
0.113062
1.05989
4.99578
5.43324
5.85836
5.8261
5.71551
5.50432
5.09486
4.72299
0.00404876
0.00376156
0.00371617
0.00370807
0.00371656
0.00374401
0.00378813
0.00391334
0.00421139
0.00473523
0.00543594
0.00678792
0.0169977
0.131063
1.24074
5.13695
5.52566
5.89262
5.83549
5.68679
5.46595
5.07324
4.69403
0.00404549
0.00375993
0.00371515
0.00370711
0.00371535
0.00374304
0.00378831
0.00391908
0.00423651
0.00476683
0.00547182
0.00729516
0.0204332
0.170714
1.45626
5.26348
5.61004
5.91701
5.84228
5.68311
5.46239
5.0935
4.71542
0.00404342
0.00375756
0.00371355
0.00370578
0.00371464
0.00374176
0.0037898
0.00392681
0.00425599
0.00482117
0.00563439
0.00800931
0.0306163
0.231791
1.70632
5.35861
5.68299
5.93547
5.84913
5.70385
5.50338
5.22062
4.85295
0.00403972
0.00375568
0.00371216
0.00370489
0.00371312
0.00374146
0.00379054
0.00393784
0.00429531
0.00489855
0.00588732
0.0113742
0.051865
0.31945
1.9905
5.42745
5.74164
5.95264
5.86189
5.73854
5.54224
5.30534
4.85213
0.00403762
0.00375375
0.00371045
0.00370337
0.00371225
0.00374179
0.00379346
0.00395149
0.00432688
0.00501594
0.00665986
0.0169939
0.0842499
0.430286
2.30697
5.45022
5.78069
5.97835
5.90733
5.75634
5.56749
5.28799
4.76492
0.00403381
0.00375102
0.00370857
0.00370248
0.0037105
0.00374162
0.0037973
0.00397033
0.00438492
0.00518934
0.00791096
0.0280694
0.129063
0.567484
2.65217
5.44356
5.78023
6.00401
5.97365
5.79177
5.63916
5.32984
4.78549
0.00403147
0.00374942
0.00370686
0.00370083
0.00370947
0.00374066
0.00380409
0.00399158
0.00443181
0.00541935
0.0100327
0.041185
0.187882
0.728373
3.0172
5.39878
5.76361
6.05008
5.99651
5.88725
5.75717
5.24396
4.59105
0.0040273
0.00374586
0.00370453
0.00369949
0.00370772
0.00374004
0.00381336
0.00402091
0.00451213
0.00573912
0.012703
0.0604493
0.25828
0.907877
3.38763
5.34432
5.70792
6.13453
6.07274
5.95905
5.63615
4.93048
4.2767
0.00402475
0.00374357
0.00370306
0.00369802
0.00370604
0.00373844
0.00382481
0.004051
0.00457625
0.00610217
0.0160891
0.0822082
0.344153
1.11055
3.74491
5.29344
5.6826
6.16657
6.07812
5.94401
5.34288
4.72401
4.11992
0.00401953
0.00373993
0.00370022
0.00369557
0.00370504
0.00373982
0.00384209
0.00409308
0.00467987
0.00657842
0.0202868
0.10968
0.433441
1.3178
4.06016
5.21449
5.63701
6.16487
6.01201
5.81254
5.15533
4.46843
3.85146
0.00401654
0.0037359
0.00369868
0.00369419
0.00370217
0.00374305
0.00386139
0.00413304
0.00476121
0.00707269
0.0248108
0.137943
0.53962
1.56241
4.31682
5.1767
5.63442
5.9668
5.92613
5.50741
4.76122
4.07473
3.50309
0.00401004
0.00373262
0.00369542
0.00369122
0.00370163
0.00375273
0.00388852
0.00418875
0.00488561
0.0076491
0.0298608
0.17066
0.638172
1.75827
4.54078
5.14198
5.67942
5.89562
5.73473
5.00136
4.35919
3.82976
3.34685
0.00400622
0.00372733
0.00369369
0.00368977
0.00370196
0.00376339
0.00391847
0.00423939
0.00498121
0.00825186
0.03526
0.199388
0.736739
2.00054
4.5816
5.112
5.58622
5.74334
5.30515
4.68436
4.13271
3.54058
3.00552
0.00399803
0.00372367
0.00368985
0.00368572
0.00370755
0.00378332
0.00395689
0.00430813
0.00512223
0.00886799
0.0406488
0.236774
0.846615
2.18532
4.61071
5.0812
5.55101
5.51731
5.05735
4.30993
3.66356
3.05228
2.54994
0.00399326
0.00371828
0.00368798
0.00368607
0.00371626
0.00380376
0.00399868
0.00436892
0.0052254
0.0095023
0.0458175
0.257025
0.914723
2.48367
4.61367
5.06325
5.49993
5.27955
4.48451
3.73449
3.12381
2.61315
2.22272
0.00398354
0.00371386
0.0036838
0.00369093
0.00373227
0.00383659
0.00404948
0.0044496
0.00537851
0.0101065
0.0510206
0.293256
1.01752
2.59235
4.51276
5.01074
5.29771
4.60397
3.75751
3.16686
2.69081
2.26772
1.93665
0.00397778
0.00370951
0.00368591
0.00369958
0.0037501
0.00386926
0.00410231
0.00451817
0.00548223
0.0107381
0.0560836
0.313948
1.07985
2.60543
4.33072
4.88875
4.67636
3.79135
3.1987
2.80719
2.43494
2.06595
1.75748
0.00396742
0.0037052
0.00369253
0.00371356
0.00377984
0.00391645
0.00416588
0.00460877
0.00564407
0.0113065
0.0614724
0.358583
1.19717
2.55652
4.09018
4.47575
3.89796
3.19545
2.85541
2.56629
2.22992
1.86488
1.56999
0.00395976
0.00369814
0.00370448
0.0037324
0.0038092
0.0039613
0.00422724
0.00468219
0.00573945
0.0118986
0.0665674
0.369882
1.19706
2.46562
3.78996
3.87395
3.27194
2.86088
2.63731
2.39019
2.04906
1.69007
1.40467
0.00395101
0.00369881
0.00372348
0.00375647
0.00385407
0.00402255
0.0043022
0.00477995
0.00591061
0.0124482
0.0712106
0.382046
1.18097
2.33648
3.43404
3.31426
2.87729
2.65576
2.51493
2.2774
1.94515
1.57689
1.30779
0.00394004
0.00370645
0.00374343
0.00378702
0.00389659
0.0040783
0.00436994
0.00485377
0.00598999
0.0127554
0.0779497
0.357812
1.13809
2.1726
3.03755
2.91118
2.68816
2.53007
2.391
2.14645
1.72575
1.27949
1.1196
0.00393555
0.00371215
0.00377359
0.00382511
0.00395423
0.00415004
0.00445153
0.00495665
0.00618806
0.0147833
0.0836019
0.342974
1.09611
1.99119
2.64785
2.63088
2.51381
2.37085
2.27636
1.95633
1.54284
1.21227
0.96476
0.00392444
0.00373008
0.00380629
0.00386295
0.0040062
0.00421146
0.00452024
0.00502501
0.00623137
0.0142909
0.0789496
0.307246
1.00997
1.77117
2.3494
2.46944
2.40184
2.28104
2.09917
1.79066
1.45712
1.19581
0.835522
0.00391908
0.00374303
0.00384025
0.00391324
0.00406994
0.00428363
0.00459278
0.00509623
0.00626852
0.0136334
0.0735626
0.276068
0.920174
1.57534
2.07489
2.34183
2.3076
2.24215
2.07674
1.78766
1.42339
1.11726
0.872741
0.00391082
0.00376745
0.00388878
0.00395626
0.00412837
0.00434685
0.0046584
0.00516225
0.0063089
0.0130823
0.068223
0.248636
0.82925
1.41381
2.01441
2.25759
2.20743
2.16318
2.04541
1.77889
1.45327
1.123
0.856384
0.00390245
0.00379457
0.00392319
0.00401586
0.00419489
0.00441927
0.00473013
0.0052288
0.00634862
0.0126567
0.0634005
0.224501
0.741289
1.26307
1.99779
2.25208
2.25329
2.22591
2.13573
1.95858
1.60642
1.24593
0.947756
0.00389579
0.00382249
0.0039823
0.00406338
0.0042631
0.00449017
0.00479654
0.00528156
0.00639658
0.0123604
0.0591372
0.203678
0.657784
1.3054
1.97269
2.41051
2.74952
2.89774
2.80531
2.83377
2.58763
2.14556
1.67355
0.00389195
0.00386111
0.00402598
0.00413293
0.00431828
0.00454407
0.00484744
0.0053455
0.00644269
0.012143
0.0553654
0.185035
0.583739
1.22202
2.01073
2.62701
3.25761
3.59741
3.96865
4.26439
4.20647
4.09792
3.71105
0.00388793
0.00389825
0.00407735
0.0041701
0.00439418
0.00461787
0.00491917
0.00539876
0.00647958
0.0118551
0.0519658
0.169149
0.526908
1.39026
2.06917
2.9872
3.72828
4.06098
4.35702
4.63478
4.84972
5.00737
4.93975
0.00388832
0.00394683
0.00412894
0.00425661
0.00445563
0.00467279
0.00496726
0.00542723
0.00652287
0.012516
0.0487238
0.154573
0.464113
1.27838
2.35754
3.6116
4.33084
4.58282
4.53675
4.49737
4.45632
4.53917
4.6774
0.00388234
0.00397088
0.00418826
0.00427306
0.00445391
0.00471722
0.00499138
0.00542859
0.00655626
0.0126406
0.0455285
0.141154
0.504903
1.35367
2.50425
4.47281
4.93016
4.99191
4.88321
4.5647
4.22507
3.9611
3.87752
0.00388785
0.00398771
0.00418817
0.00427848
0.00445745
0.00470452
0.00497558
0.00543012
0.00657002
0.0126381
0.0424755
0.131291
0.505564
1.31215
2.99731
4.95279
5.30697
5.37249
5.1824
4.83376
4.42377
4.03709
3.68251
0.00390962
0.00400119
0.00419139
0.00427753
0.0044665
0.00470061
0.00499056
0.00543202
0.00666979
0.01273
0.0393207
0.121137
0.48632
1.33757
3.82708
5.12108
5.53583
5.63475
5.42404
5.04482
4.62342
4.21638
3.89632
0.003886
0.00400878
0.00419498
0.00428036
0.00447349
0.00469749
0.00496748
0.00543476
0.00664828
0.0120816
0.0366144
0.113923
0.446567
1.66744
4.38953
5.24705
5.49257
5.38689
5.14863
4.84273
4.44878
4.27355
4.096
0.00387207
0.00401382
0.00421767
0.0042759
0.0044717
0.00471563
0.00496131
0.00543535
0.00669871
0.0115807
0.0340284
0.104428
0.521729
2.31843
4.60304
5.17796
5.23143
4.81843
4.64533
4.54612
4.47042
4.26939
3.97434
0.00386378
0.00404456
0.00422075
0.00427546
0.00447158
0.00469894
0.00495424
0.00541688
0.00663021
0.0110436
0.030877
0.152439
0.644279
2.66331
4.25356
4.18445
4.12154
4.46145
5.03813
4.69151
2.93261
1.26842
0.465086
0.00386412
0.00401314
0.00420875
0.00429671
0.00448114
0.00468911
0.00496501
0.00541506
0.0066336
0.0115612
0.0368596
0.161446
0.828363
2.8087
3.04991
3.5794
4.49995
4.66259
3.38746
1.51101
0.471477
0.137123
0.0494844
0.00381569
0.00401199
0.00419138
0.00426754
0.00443106
0.00467318
0.00493841
0.00538949
0.00655733
0.0117925
0.0420052
0.228543
1.3072
2.35151
3.07677
3.97694
4.09704
2.9165
1.49849
0.362059
0.0854067
0.0247544
0.0140019
0.00380362
0.00400804
0.0041725
0.00426387
0.00441803
0.00464708
0.00491808
0.00535874
0.00652741
0.0120201
0.0480471
0.281691
1.20111
1.9252
3.23011
3.5359
2.83908
1.68926
0.555685
0.0954288
0.0220824
0.0114187
0.00989753
0.00381986
0.00398302
0.00414855
0.00424128
0.00442399
0.00461565
0.00487293
0.00532947
0.00660213
0.0123923
0.0467192
0.315889
1.11726
1.89807
2.86501
2.75229
1.89409
0.853417
0.162318
0.0288992
0.0114978
0.00955332
0.00922868
0.00380353
0.00394622
0.00411259
0.00419127
0.00438448
0.00454452
0.00480382
0.00528189
0.00667739
0.0126487
0.088554
0.489079
1.01898
1.85636
2.40748
2.02323
1.15488
0.294628
0.0518748
0.0134108
0.00963296
0.00907146
0.00887505
0.00377184
0.00386266
0.00403433
0.00409997
0.00433933
0.00444802
0.00479986
0.00522158
0.00677185
0.0161115
0.0970514
0.45301
0.948663
1.77926
1.94795
1.35198
0.529201
0.0963126
0.019305
0.010103
0.00902291
0.00863305
0.00836882
0.00371707
0.00383496
0.00393178
0.00407531
0.00426513
0.00441645
0.00474134
0.00518828
0.00673267
0.0173792
0.0849208
0.394929
0.921667
1.54972
1.46895
0.744416
0.172855
0.0318293
0.0112513
0.00896271
0.00830958
0.0078967
0.00762133
0.00362838
0.00384512
0.00389894
0.00408623
0.00421082
0.00441906
0.00467947
0.00516399
0.00687097
0.018102
0.117941
0.425501
0.928421
1.32115
0.930046
0.275538
0.0562002
0.0138
0.00888613
0.00788198
0.00740789
0.00704471
0.00688361
0.00351707
0.0038146
0.00390634
0.00404652
0.00414898
0.0043605
0.00455638
0.00512983
0.00717783
0.0229729
0.14018
0.607594
0.835429
0.967334
0.444425
0.0897284
0.0194184
0.00886055
0.00736038
0.00682523
0.00644442
0.0062718
0.00609976
0.00348231
0.00375077
0.00384314
0.00396566
0.00406974
0.00430025
0.00449241
0.00519646
0.00818335
0.0358391
0.226077
0.579248
0.701597
0.566422
0.140934
0.0295206
0.00943625
0.0069247
0.00627765
0.00596463
0.00574346
0.00563982
0.00550951
0.00348549
0.00368116
0.00376951
0.00386491
0.00394019
0.00414655
0.00435486
0.00541207
0.0124696
0.0781885
0.488767
0.529109
0.442723
0.244822
0.0430995
0.0112946
0.00650418
0.00572866
0.00544269
0.00524188
0.00515235
0.00505813
0.00500439
0.00342538
0.00354876
0.00363529
0.003742
0.00386787
0.00405348
0.0043591
0.00610395
0.0204638
0.139219
0.463247
0.359999
0.248905
0.0729807
0.014616
0.0064655
0.00536043
0.00505371
0.00489115
0.00480861
0.00475024
0.00469813
0.0046751
0.00332705
0.00346299
0.00354997
0.00363805
0.00370598
0.00386667
0.00447713
0.00850516
0.0413361
0.252891
0.347372
0.189908
0.0997529
0.0207135
0.00680721
0.00492897
0.00460272
0.00447824
0.00439349
0.00435612
0.00431487
0.00429251
0.00427696
0.0032287
0.00332893
0.00338333
0.00348414
0.00362079
0.00383263
0.00513497
0.015264
0.0704355
0.2154
0.194286
0.0925817
0.0297092
0.00793063
0.00474916
0.00432794
0.0042084
0.00414458
0.00410934
0.00408886
0.0040662
0.00405701
0.00404562
0.00309286
0.00323221
0.00329104
0.00338204
0.00342119
0.00396206
0.00710637
0.0229431
0.105293
0.144607
0.088525
0.0347083
0.00969094
0.00460196
0.00389856
0.00379262
0.00375068
0.00372052
0.0037075
0.00369313
0.00368237
0.00367596
0.00366745
0.00300597
0.00308997
0.00308466
0.00313577
0.00343723
0.00455984
0.0109812
0.0432865
0.0921776
0.0866674
0.0384229
0.0123506
0.00488765
0.00378853
0.00362417
0.00358392
0.00355509
0.00353584
0.00352676
0.00351498
0.00350717
0.0035009
0.00349361
0.00279839
0.00285949
0.00294835
0.00328684
0.00444992
0.0087042
0.0226509
0.0486582
0.0587863
0.0335603
0.0124155
0.00481128
0.00333007
0.00309793
0.00307291
0.00306007
0.00305006
0.00304582
0.00303879
0.00303214
0.00302711
0.00302129
0.00301626
0.00562705
0.00500311
0.00465528
0.00440195
0.00425049
0.00413003
0.00406893
0.00401047
0.00398286
0.00396075
0.00396999
0.00400236
0.00407559
0.00416918