/*--------------------------------*- C++ -*----------------------------------*\
  =========                 |
  \\      /  F ield         | OpenFOAM: The Open Source CFD Toolbox
   \\    /   O peration     | Website:  https://openfoam.org
    \\  /    A nd           | Version:  7
     \\/     M anipulation  |
\*---------------------------------------------------------------------------*/
FoamFile
{
    version     2.0;
    format      ascii;
    class       volScalarField;
    location    "150";
    object      nut;
}
// * * * * * * * * * * * * * * * * * * * * * * * * * * * * * * * * * * * * * //

dimensions      [0 2 -1 0 0 0 0];

internalField   nonuniform List<scalar> 
12842
(
0.00181142
0.00179081
0.00178431
0.00177583
0.00177791
0.00176772
0.00176894
0.00175657
0.00176259
0.00175823
0.00176889
0.0017757
0.00179187
0.00108229
0.000545886
0.000317671
0.000212604
0.000155242
0.000120651
9.75348e-05
8.17522e-05
7.0745e-05
6.19801e-05
0.00181118
0.00178894
0.00178059
0.00176342
0.0017694
0.00176471
0.00176589
0.00175844
0.00176091
0.00175803
0.00176815
0.00177593
0.00179361
0.00109601
0.00055038
0.000319885
0.000213957
0.000156378
0.000121766
9.85981e-05
8.26987e-05
7.18895e-05
6.26026e-05
0.00180809
0.00178924
0.0017877
0.00177124
0.00176964
0.00176339
0.0017653
0.0017562
0.00175882
0.00175881
0.00176794
0.00177781
0.0017982
0.00108852
0.000547755
0.000319735
0.000214811
0.000157401
0.000122923
9.96204e-05
8.36199e-05
7.30679e-05
6.33147e-05
0.00180711
0.00178146
0.00177908
0.00176709
0.00176959
0.00176371
0.00176458
0.00175789
0.00175606
0.00175818
0.00176768
0.00178086
0.0018018
0.00106684
0.000539818
0.000316963
0.000213764
0.000157109
0.000123211
0.000100441
8.44547e-05
7.42293e-05
6.4051e-05
0.00180586
0.00178244
0.00177906
0.00176758
0.00176991
0.00176396
0.00176481
0.00175661
0.00175494
0.00175966
0.00176704
0.00178149
0.001808
0.00104376
0.000529816
0.00031321
0.000213161
0.000157438
0.000123898
0.000101216
8.53779e-05
7.5541e-05
6.49901e-05
0.00180319
0.00177815
0.00177263
0.00176454
0.00176969
0.00176523
0.00176521
0.00175836
0.00175336
0.00175992
0.00176727
0.00178282
0.00181111
0.00103068
0.000525627
0.000312069
0.00021251
0.000157541
0.000124522
0.000102327
8.64925e-05
7.71219e-05
6.61597e-05
0.00180218
0.00177811
0.00177057
0.00176236
0.00176936
0.00176546
0.0017663
0.00175773
0.00175427
0.00176067
0.00176492
0.00178503
0.00181793
0.00101594
0.000519336
0.00031004
0.000213309
0.000158859
0.000126115
0.000103755
8.77672e-05
7.86313e-05
6.73568e-05
0.00179899
0.00177657
0.00176623
0.00175998
0.00176826
0.00176643
0.00176652
0.00175933
0.00175412
0.00176034
0.00176728
0.00178859
0.00182314
0.00104774
0.000529157
0.000313916
0.000214622
0.0001603
0.00012811
0.000106188
9.01572e-05
8.13464e-05
6.95532e-05
0.00179791
0.00177577
0.00176353
0.00175711
0.00176729
0.00176683
0.00176781
0.00175924
0.00175592
0.00176069
0.0017695
0.0017895
0.00182755
0.00108761
0.000539873
0.00031747
0.000217636
0.000162563
0.000130412
0.000108533
9.22574e-05
8.40737e-05
7.15992e-05
0.00179409
0.00177535
0.0017607
0.00175565
0.00176597
0.00176747
0.00176745
0.00176029
0.00175655
0.00176117
0.00177289
0.00179436
0.0018339
0.00105779
0.000531084
0.000314575
0.00021601
0.000162253
0.000130835
0.000109509
9.31505e-05
8.53124e-05
7.23634e-05
0.00179278
0.00177374
0.00175799
0.00175312
0.00176456
0.0017677
0.00176788
0.00176051
0.00175796
0.00175895
0.00177592
0.00179543
0.00183906
0.00104708
0.000525968
0.000313421
0.000217188
0.000164054
0.000133112
0.00011198
9.54419e-05
8.82486e-05
7.48657e-05
0.00178897
0.00177363
0.00175633
0.00175228
0.00176322
0.00176805
0.00176705
0.00176138
0.00175867
0.00176109
0.00177926
0.00180163
0.00184543
0.00103667
0.000523474
0.000312091
0.000216994
0.000165249
0.000135317
0.000115094
9.85471e-05
9.20853e-05
7.80204e-05
0.00178764
0.00177154
0.00175407
0.00175012
0.00176142
0.00176789
0.00176673
0.0017619
0.00175994
0.00176326
0.00178297
0.00180258
0.00185116
0.00102277
0.000516565
0.000311743
0.000218369
0.000167596
0.000137978
0.000118611
0.000102027
9.72861e-05
8.21985e-05
0.00178451
0.00177127
0.00175357
0.00174971
0.00176031
0.00176782
0.00176579
0.0017627
0.0017607
0.00176633
0.00178544
0.00180898
0.00185784
0.00101159
0.000513721
0.000309045
0.000217552
0.000168426
0.000140049
0.000121823
0.0001059
0.000102102
8.69728e-05
0.00178362
0.00176898
0.00175216
0.001748
0.00175829
0.001767
0.00176491
0.00176352
0.00176205
0.00176828
0.00178679
0.00181064
0.00186443
0.000997036
0.000506372
0.000309632
0.000218806
0.000170248
0.000141932
0.000124636
0.000110373
0.000106531
9.36085e-05
0.00178123
0.00176845
0.00175271
0.00174776
0.00175753
0.0017663
0.00176414
0.00176433
0.00176342
0.00177111
0.00178931
0.00181794
0.00187214
0.000982978
0.000503043
0.000306176
0.000217159
0.000170508
0.000143714
0.000127386
0.000115816
0.000111591
0.000101853
0.00178054
0.00176621
0.00175225
0.00174649
0.00175557
0.0017646
0.00176328
0.00176532
0.00176306
0.00177279
0.00179089
0.00182073
0.00188054
0.000967812
0.00049585
0.000306975
0.000218389
0.000171391
0.000144725
0.000129775
0.000121174
0.000116438
0.000114644
0.00177868
0.00176549
0.00175351
0.00174637
0.00175494
0.00176323
0.00176275
0.00176614
0.00176432
0.00177597
0.00179519
0.00182973
0.00188949
0.000953204
0.000492215
0.000303148
0.000216067
0.000171058
0.000145858
0.000131535
0.000125166
0.000124064
0.000130242
0.00177799
0.00176366
0.00175379
0.00174557
0.0017531
0.00176102
0.00176209
0.00176717
0.00176351
0.00177773
0.00179717
0.00183371
0.00189897
0.000939435
0.000487103
0.000304829
0.000217528
0.000171037
0.000145552
0.000131796
0.000127627
0.000128971
0.000140642
0.00177628
0.00176308
0.00175534
0.00174563
0.00175226
0.00175917
0.0017617
0.00176782
0.00176411
0.00178072
0.00180343
0.00184558
0.00190842
0.000923719
0.000482563
0.000300633
0.000215028
0.000170505
0.000144995
0.000130376
0.000125348
0.000129306
0.000136468
0.00177559
0.00176184
0.00175604
0.00174522
0.0017506
0.00175682
0.00176135
0.00176871
0.00176417
0.00178164
0.00180623
0.00185093
0.00191577
0.000915318
0.000481282
0.000303692
0.000216948
0.000169809
0.000143055
0.000126272
0.000121318
0.00012616
0.000126471
0.00177392
0.00176142
0.00175742
0.00174549
0.00174943
0.00175478
0.00176107
0.00176915
0.00176657
0.00178503
0.00181397
0.00186509
0.0019236
0.000885707
0.000471731
0.000298818
0.000215067
0.000170128
0.000140756
0.000123528
0.000119136
0.00012393
0.000125355
0.00177339
0.00176066
0.00175829
0.00174533
0.001748
0.00175274
0.00176071
0.00176984
0.0017687
0.00178717
0.00181799
0.00187332
0.00192724
0.000898483
0.000476546
0.000303613
0.000218565
0.000169444
0.000139738
0.000121321
0.000114823
0.000119892
0.000106203
0.00177191
0.00176039
0.00175976
0.00174573
0.00174661
0.00175065
0.00176043
0.00177016
0.00177139
0.00179132
0.00182619
0.00188543
0.00192934
0.000901014
0.000473094
0.000301361
0.000217819
0.000171365
0.000138504
0.000119654
0.000112008
0.000106387
9.28902e-05
0.00177154
0.00176016
0.00176091
0.00174601
0.00174558
0.00174923
0.00176013
0.0017706
0.00177398
0.00179415
0.0018321
0.00189485
0.00192525
0.000878419
0.00047345
0.000308485
0.00022658
0.000175807
0.000144024
0.000124973
0.000112846
0.000110613
0.000119585
0.00177034
0.00175999
0.00176162
0.00174616
0.00174502
0.00174839
0.00175991
0.00177071
0.00177554
0.00179744
0.00183858
0.00190447
0.00192454
0.00085581
0.000466582
0.000307725
0.000230045
0.000186
0.000155648
0.000139593
0.000136626
0.000171179
0.000297924
0.00177015
0.00175985
0.00176256
0.00174646
0.00174456
0.00174761
0.00175975
0.00177084
0.00177721
0.00180067
0.00184542
0.00191155
0.00191529
0.000850124
0.000472462
0.000319294
0.000246683
0.000205799
0.000183345
0.000180103
0.000237818
0.000546758
0.00115811
0.00176898
0.00175967
0.00176288
0.00174653
0.00174457
0.0017474
0.00175969
0.00177079
0.00177787
0.00180365
0.00185132
0.00191846
0.001895
0.00083039
0.000466574
0.000322766
0.000260301
0.000232124
0.000231062
0.000310993
0.000859976
0.00147692
0.00178879
0.00176892
0.00175957
0.00176348
0.0017469
0.00174475
0.00174719
0.00175979
0.00177062
0.00177955
0.00180691
0.00185868
0.00192175
0.00185237
0.000826253
0.000473636
0.00033539
0.000282883
0.000284626
0.000364727
0.000960333
0.00168173
0.00205779
0.00292196
0.00176783
0.00175937
0.00176338
0.00174701
0.00174527
0.00174742
0.00175994
0.0017704
0.00178031
0.00180978
0.00186394
0.00192616
0.00179
0.000805472
0.000467717
0.000344613
0.000312459
0.000362812
0.000797263
0.00179376
0.00252506
0.00419078
0.00745349
0.00176785
0.00175925
0.00176353
0.00174749
0.00174595
0.00174759
0.00176024
0.0017699
0.00178141
0.00181297
0.00187093
0.00192607
0.00174519
0.000800807
0.000476042
0.000357872
0.000352465
0.000576611
0.00158179
0.0023919
0.00410979
0.00694453
0.0117314
0.0017669
0.00175908
0.00176304
0.00174778
0.00174677
0.00174801
0.00176045
0.00176916
0.00178248
0.00181552
0.00187525
0.00192842
0.00168236
0.000780868
0.000471863
0.00037322
0.000418874
0.00103812
0.00225801
0.00381697
0.00604177
0.0105012
0.0181689
0.00176692
0.00175891
0.00176269
0.00174831
0.00174763
0.00174835
0.00176074
0.00176848
0.00178429
0.00181853
0.00188091
0.00192578
0.00164124
0.00077946
0.000483825
0.000398731
0.000555526
0.0017733
0.00309956
0.00483054
0.00828391
0.0158177
0.0244688
0.00176613
0.00175884
0.00176194
0.00174884
0.00174845
0.00174877
0.00176081
0.00176754
0.001786
0.00182112
0.00188529
0.00192685
0.00158442
0.000762841
0.000485225
0.000435503
0.000917132
0.00244944
0.00383679
0.00578182
0.0109524
0.0194547
0.0227127
0.00176613
0.00175859
0.00176113
0.00174931
0.00174915
0.00174915
0.00176087
0.00176713
0.00178803
0.00182358
0.00188813
0.00192188
0.00155096
0.000761754
0.000496791
0.000505981
0.00142336
0.00281538
0.00419798
0.00674208
0.0135132
0.0225986
0.0207858
0.00176543
0.00175868
0.00176031
0.00175003
0.00174973
0.00174953
0.00176066
0.00176628
0.00178953
0.00182636
0.00189379
0.0019219
0.00150312
0.000755103
0.000536327
0.000678237
0.00208141
0.0030903
0.00433393
0.00770271
0.0160229
0.0239503
0.0212404
0.00176546
0.00175831
0.00175921
0.00175035
0.00175
0.00174993
0.00176044
0.00176631
0.00179078
0.0018292
0.0018977
0.00191544
0.00147247
0.000748086
0.00055824
0.000886251
0.00220917
0.00319096
0.00447085
0.00886259
0.0181733
0.0232496
0.0231313
0.00176474
0.0017585
0.00175844
0.00175113
0.00175023
0.00175033
0.00175996
0.00176572
0.00179166
0.00183182
0.00190158
0.00191342
0.0014352
0.000768932
0.000696938
0.00144954
0.0022659
0.00309069
0.00461075
0.0101036
0.0205048
0.0243573
0.0256404
0.00176486
0.00175799
0.00175728
0.00175137
0.00175001
0.00175081
0.00175954
0.00176611
0.00179295
0.00183379
0.00190737
0.00190622
0.0014045
0.000788375
0.000822979
0.00189055
0.00250602
0.00321719
0.00500013
0.0114176
0.0229836
0.0250682
0.0274478
0.00176408
0.00175817
0.00175655
0.00175204
0.00174993
0.00175131
0.0017589
0.00176599
0.00179359
0.00183613
0.00191201
0.0019006
0.00139011
0.000833399
0.00109903
0.0018121
0.00244295
0.00340332
0.00551245
0.012872
0.025379
0.0253471
0.0284157
0.00176429
0.00175753
0.00175557
0.00175224
0.00174945
0.00175188
0.00175836
0.0017665
0.00179462
0.00183731
0.00191996
0.00189258
0.00137746
0.000964694
0.00164071
0.00238486
0.00314309
0.00389586
0.00667837
0.0152621
0.0266116
0.0250857
0.0290532
0.00176352
0.00175757
0.00175487
0.00175267
0.0017492
0.00175249
0.00175775
0.00176716
0.0017956
0.00184011
0.00192228
0.00188506
0.00141431
0.00107079
0.00183252
0.00250744
0.00328614
0.00484543
0.00939947
0.0181873
0.0271828
0.0252019
0.0298919
0.00176376
0.00175686
0.00175412
0.00175284
0.00174876
0.00175308
0.00175711
0.00176796
0.00179652
0.00184448
0.00193018
0.00187701
0.00142557
0.00137462
0.00241293
0.00358642
0.00486294
0.00730819
0.0133311
0.0213795
0.0287118
0.0267053
0.0320751
0.00176314
0.00175674
0.00175348
0.00175304
0.00174851
0.00175375
0.00175668
0.00176867
0.00179802
0.00185022
0.00193768
0.00187762
0.0015154
0.00174511
0.00283042
0.00435369
0.00719571
0.0115347
0.0184928
0.0246765
0.0297915
0.0301734
0.034628
0.0017633
0.00175607
0.00175285
0.00175314
0.00174831
0.00175425
0.00175597
0.00176936
0.00180035
0.00185852
0.00193925
0.00186947
0.0016391
0.00218952
0.00418598
0.00710918
0.0107931
0.0165432
0.0239041
0.0274553
0.0305312
0.0331283
0.0351184
0.00176294
0.0017558
0.00175246
0.00175323
0.0017482
0.00175484
0.00175576
0.00176995
0.00180249
0.00186514
0.00194447
0.00188331
0.00181659
0.00299394
0.00513207
0.00928547
0.0146154
0.0222914
0.0296248
0.0315455
0.0326172
0.0345424
0.036699
0.00176293
0.00175525
0.00175189
0.00175326
0.0017482
0.0017552
0.00175519
0.00177065
0.00180502
0.00187225
0.00193631
0.0018805
0.00198755
0.00373105
0.00757846
0.0127828
0.019578
0.0287252
0.0345594
0.035823
0.0367287
0.0378385
0.0397042
0.00176286
0.00175488
0.00175181
0.00175333
0.00174847
0.0017555
0.00175489
0.00177116
0.00180778
0.00187466
0.00193987
0.00190706
0.00241905
0.00519881
0.00924141
0.0172932
0.0249538
0.0365931
0.0401266
0.0409592
0.0415803
0.0418347
0.0432115
0.0017626
0.00175454
0.00175145
0.00175336
0.00174843
0.00175575
0.00175479
0.00177185
0.00181108
0.00187538
0.00192324
0.00195324
0.00275516
0.00609284
0.0119572
0.0204385
0.0327574
0.0445956
0.0458352
0.0466064
0.0471522
0.0464795
0.0468254
0.00176281
0.00175412
0.00175163
0.00175347
0.00174827
0.0017559
0.00175438
0.00177256
0.00181497
0.00187278
0.001933
0.002
0.00317853
0.007611
0.0148704
0.0259655
0.0416551
0.0511403
0.0521044
0.0513548
0.0507683
0.0499232
0.0492399
0.00176243
0.00175399
0.00175144
0.00175349
0.00174814
0.00175607
0.0017543
0.00177323
0.00181585
0.00187424
0.00194635
0.00209508
0.00417276
0.00976188
0.0181749
0.0327019
0.0486694
0.0552907
0.0552173
0.0541532
0.0524357
0.050666
0.0492456
0.00176267
0.0017537
0.00175175
0.00175362
0.00174818
0.00175634
0.00175439
0.00177436
0.0018169
0.00187647
0.00195498
0.0021332
0.00471306
0.0110716
0.0220027
0.0380626
0.052988
0.057726
0.0569754
0.0546414
0.0520439
0.0496421
0.0477246
0.00176231
0.00175366
0.00175172
0.0017531
0.00174838
0.00175634
0.00175476
0.0017762
0.00181719
0.00188118
0.00196492
0.00220935
0.00495045
0.0131354
0.0251225
0.0415478
0.055101
0.0584509
0.056621
0.0534323
0.0500469
0.0471389
0.0449414
0.00176245
0.00175352
0.00175166
0.0017533
0.00174901
0.00175591
0.00175503
0.00177859
0.00181939
0.00189108
0.00198424
0.00235662
0.00552625
0.0152777
0.0271739
0.0436386
0.0560705
0.0575357
0.0548854
0.0507472
0.0470091
0.044023
0.0417568
0.00176214
0.0017535
0.00175156
0.00175334
0.00174984
0.00175524
0.0017555
0.00178059
0.00182108
0.00189724
0.00199747
0.00196829
0.0050122
0.0164467
0.0283723
0.04455
0.0556411
0.0554132
0.0514893
0.0473135
0.0438608
0.0409596
0.0387496
0.00176215
0.00175346
0.00175172
0.00175371
0.00174992
0.00175457
0.00175597
0.00178284
0.00182338
0.00190227
0.00202926
0.00178384
0.00468073
0.016389
0.0290088
0.0452197
0.0536624
0.0519541
0.047745
0.0441743
0.0412246
0.0384386
0.0362764
0.00176189
0.00175346
0.00175183
0.00175384
0.00175015
0.00175401
0.00175609
0.00178425
0.00182517
0.00190532
0.00203365
0.00191725
0.00495277
0.0158512
0.0291271
0.0449299
0.0514508
0.0488081
0.0447657
0.0417196
0.039317
0.0366375
0.0345287
0.00176188
0.00175341
0.00175203
0.00175405
0.00175062
0.00175362
0.00175608
0.00178567
0.00182711
0.00190763
0.00204195
0.00186451
0.00433665
0.0147401
0.0288563
0.0444703
0.0490892
0.0459609
0.0422689
0.0397689
0.0378214
0.0353896
0.0330568
0.00176164
0.0017534
0.0017522
0.00175428
0.00175071
0.00175323
0.00175598
0.0017869
0.00182934
0.00191037
0.00204835
0.00186878
0.00363674
0.0135695
0.0280159
0.0437852
0.0467458
0.0434979
0.0403602
0.038454
0.0367533
0.0345666
0.0320389
0.00176162
0.0017534
0.0017524
0.00175475
0.00175102
0.00175315
0.00175606
0.00178825
0.00183201
0.00191326
0.00205315
0.0018867
0.00325232
0.0126246
0.026576
0.042863
0.0446865
0.0414613
0.0390592
0.0374397
0.0359736
0.033993
0.0313202
0.00176145
0.00175328
0.00175253
0.00175482
0.00175105
0.00175284
0.00175639
0.00178945
0.00183495
0.00191659
0.00204959
0.00204158
0.00284716
0.0108724
0.0245572
0.0417089
0.0428247
0.0398995
0.0381058
0.0367747
0.0354703
0.033542
0.030759
0.00176137
0.00175329
0.00175278
0.0017548
0.00175095
0.00175288
0.00175697
0.00179077
0.00183839
0.00192049
0.00204385
0.00209326
0.00244443
0.00918056
0.022044
0.040228
0.0409716
0.0387701
0.0375198
0.0363986
0.0351593
0.0331042
0.0303026
0.00176133
0.00175311
0.00175307
0.00175453
0.00175079
0.00175268
0.00175765
0.00179194
0.00184185
0.00192431
0.00204393
0.00212326
0.00229158
0.00789181
0.0190311
0.038468
0.0392396
0.0380288
0.0372778
0.0362589
0.0349054
0.0326234
0.0298997
0.00176118
0.00175308
0.0017535
0.00175435
0.00175063
0.00175249
0.00175838
0.00179321
0.00184568
0.00192857
0.00203231
0.00210359
0.00221882
0.00752094
0.0165678
0.0363492
0.0378695
0.0376734
0.0373759
0.0363498
0.0347029
0.0322467
0.0295866
0.00176127
0.00175289
0.00175347
0.00175395
0.0017505
0.0017525
0.0017593
0.00179428
0.00184906
0.00193234
0.00202709
0.00206309
0.0025273
0.00609253
0.0150278
0.0341302
0.0367405
0.0374833
0.0373415
0.0365002
0.0344838
0.0319014
0.0292344
0.0017611
0.00175279
0.00175339
0.00175374
0.00175038
0.00175269
0.0017602
0.00179547
0.00185256
0.00193632
0.00201578
0.00207561
0.0022738
0.00586816
0.0135693
0.0321347
0.035453
0.036667
0.0377723
0.0369043
0.0345197
0.0315012
0.0288531
0.00176121
0.00175264
0.00175326
0.00175331
0.00175039
0.00175296
0.00176085
0.00179643
0.00185502
0.00193971
0.00201106
0.00206359
0.00229487
0.0056245
0.0124668
0.0307372
0.0347642
0.0368781
0.0382578
0.0371041
0.0345818
0.0309552
0.0285445
0.00176115
0.00175246
0.00175316
0.00175314
0.00175031
0.00175321
0.00176151
0.00179744
0.00185761
0.00194379
0.00200131
0.00206855
0.00242899
0.00544232
0.012567
0.0300195
0.0344812
0.0373311
0.0387524
0.0373062
0.0345542
0.0303721
0.0284012
0.00176113
0.00175233
0.00175315
0.00175273
0.00175046
0.00175353
0.0017623
0.0017982
0.00185888
0.00194735
0.00199515
0.00206007
0.00226267
0.00508479
0.0124859
0.0300694
0.0347685
0.0380037
0.0393726
0.0374244
0.0342494
0.0300801
0.0280216
0.00176129
0.00175211
0.00175313
0.00175263
0.00175042
0.00175375
0.00176293
0.00179894
0.00186081
0.00195208
0.00199985
0.0020328
0.00239106
0.00506207
0.012529
0.0303063
0.0352286
0.0388
0.0397101
0.037425
0.0337535
0.029703
0.027728
0.0017611
0.00175198
0.0017532
0.00175223
0.00175065
0.00175406
0.00176335
0.00179949
0.00186165
0.00195727
0.00201152
0.00203673
0.00258361
0.00598938
0.0123454
0.0310035
0.035935
0.0397103
0.0400342
0.0373119
0.0332275
0.0291214
0.0271676
0.00176137
0.00175181
0.00175326
0.00175225
0.0017506
0.00175428
0.00176404
0.00180024
0.0018643
0.00196179
0.00202453
0.00203722
0.00251633
0.0064179
0.0126902
0.0321643
0.0368758
0.0406305
0.0402761
0.0370753
0.0327561
0.0283598
0.026341
0.0017612
0.0017516
0.00175336
0.00175188
0.00175086
0.00175454
0.00176486
0.001801
0.00186608
0.00196864
0.00204033
0.00204305
0.00292284
0.00533333
0.0133192
0.0336389
0.037948
0.0415278
0.0404399
0.0367229
0.0323018
0.0282869
0.0255959
0.00176129
0.00175167
0.00175348
0.00175197
0.00175082
0.00175463
0.00176529
0.00180225
0.00187123
0.00197193
0.00203892
0.00200778
0.00244556
0.00469521
0.0139921
0.0352835
0.0391759
0.042382
0.0404547
0.0362373
0.0318636
0.026807
0.024684
0.00176141
0.00175133
0.00175361
0.00175166
0.00175103
0.00175491
0.0017657
0.00180397
0.00187555
0.00198132
0.00203389
0.00187803
0.00194107
0.00433353
0.0148478
0.0369418
0.040438
0.0431921
0.0404844
0.0355437
0.0313656
0.0260204
0.0238527
0.0017611
0.00175168
0.00175368
0.0017518
0.00175099
0.00175486
0.00176617
0.00180662
0.00188533
0.00198591
0.00199557
0.00174194
0.00176011
0.00460192
0.0160019
0.0386391
0.0416756
0.0436534
0.0403527
0.0347358
0.0311773
0.0257068
0.0227777
0.00176155
0.00175132
0.00175384
0.0017515
0.00175107
0.00175466
0.00176722
0.00181017
0.00189324
0.00200302
0.00198148
0.00158868
0.00201637
0.00523537
0.0174829
0.0402101
0.0429136
0.0440741
0.0400042
0.0340818
0.0306462
0.0253158
0.0226895
0.00176099
0.00175171
0.00175374
0.00175177
0.0017509
0.00175501
0.00176787
0.00181516
0.00190842
0.00201739
0.00196249
0.00184455
0.00267478
0.00618901
0.0193723
0.0417383
0.0440174
0.044364
0.0394057
0.0334086
0.0299581
0.0249856
0.0214969
0.00176148
0.00175155
0.0017539
0.00175143
0.00175094
0.00175556
0.00176963
0.00182145
0.00192112
0.00205413
0.00208734
0.00225729
0.00351133
0.00731271
0.0216048
0.0429873
0.0450125
0.0443979
0.0387184
0.0324973
0.028845
0.024006
0.0202222
0.00176104
0.00175159
0.00175356
0.0017518
0.00175059
0.00175601
0.00177168
0.00182968
0.0019418
0.00209296
0.00229602
0.00308251
0.00445927
0.00862645
0.0241986
0.0439622
0.0458179
0.0441238
0.0379281
0.0318098
0.0280429
0.0234386
0.0196908
0.00176131
0.0017517
0.00175376
0.00175149
0.00175076
0.00175596
0.00177544
0.00183933
0.00195961
0.00216491
0.00269618
0.00381016
0.00553735
0.0101019
0.0271396
0.0446103
0.0461126
0.0435924
0.0369969
0.0311099
0.0274662
0.02251
0.0186807
0.00176112
0.00175133
0.00175321
0.00175167
0.00175036
0.00175626
0.00178011
0.00185107
0.00198476
0.00224205
0.00313196
0.00478516
0.00662254
0.011672
0.0303248
0.0450671
0.0460521
0.0432242
0.0359766
0.03052
0.0262581
0.0210241
0.017318
0.00176112
0.00175137
0.0017536
0.00175166
0.00175043
0.00175589
0.00178621
0.00186388
0.00200684
0.00235151
0.00366527
0.0056838
0.00786493
0.0134133
0.0334906
0.0453732
0.0461832
0.0420639
0.0352521
0.030252
0.0249744
0.0200445
0.016567
0.00176084
0.00175089
0.00175284
0.00175117
0.00175048
0.00175743
0.00179448
0.0018787
0.00203446
0.0024652
0.00425237
0.00673049
0.00896251
0.0152207
0.0364561
0.0453666
0.0458318
0.0410265
0.0343773
0.0293446
0.0239644
0.0190586
0.0156212
0.00176061
0.00175049
0.00175333
0.00175158
0.00175031
0.00175954
0.00180376
0.00189371
0.00205908
0.00260627
0.00484052
0.00764812
0.0103159
0.017326
0.0391301
0.0458161
0.0452044
0.0392226
0.0331982
0.027926
0.0219612
0.017531
0.0144646
0.00175992
0.00175018
0.00175246
0.00175078
0.00175077
0.001765
0.00181563
0.00191005
0.00208641
0.00273233
0.00540999
0.00866278
0.01138
0.0190307
0.0417495
0.0458677
0.0449297
0.0377271
0.0320442
0.0252988
0.0203267
0.0167568
0.0141033
0.00175939
0.00174953
0.00175303
0.00175147
0.00175242
0.00177098
0.00182921
0.00192593
0.00211024
0.00289371
0.00601488
0.00941591
0.0125102
0.0211387
0.0429104
0.0462513
0.0428579
0.0367461
0.0297355
0.0237804
0.0193717
0.0157673
0.012988
0.00175815
0.00174927
0.00175212
0.0017504
0.00175563
0.00177981
0.00184323
0.00194231
0.00213554
0.00300967
0.00651559
0.0105025
0.0136798
0.0229243
0.0440989
0.0465285
0.0419108
0.0350741
0.0281857
0.0221569
0.0178321
0.0143569
0.0117164
0.00175737
0.00174891
0.00175271
0.00175241
0.00176098
0.00178974
0.00185857
0.00195691
0.00215461
0.00316489
0.00699923
0.0108303
0.0142793
0.0260702
0.0451847
0.0461781
0.0411732
0.0331429
0.0255876
0.0202022
0.016263
0.0131551
0.0108641
0.00175565
0.0017484
0.00175215
0.0017553
0.00176791
0.00180175
0.00187288
0.00197219
0.00217777
0.00325618
0.00741164
0.0118219
0.0152202
0.027472
0.0454465
0.045483
0.0387909
0.0296298
0.0228218
0.0183299
0.0149083
0.012093
0.0100026
0.00175499
0.00174908
0.00175486
0.00176098
0.00177567
0.00181435
0.00188786
0.00198297
0.00218882
0.00339742
0.00784947
0.0122335
0.0159517
0.0281339
0.0448926
0.0435381
0.0348055
0.0261084
0.0208587
0.0173349
0.0143706
0.0117562
0.0096989
0.00175306
0.00174848
0.00175934
0.00176568
0.00178549
0.00182824
0.00190197
0.00199557
0.00220887
0.00346037
0.00827765
0.0136341
0.017475
0.0283423
0.0432746
0.0398901
0.0308731
0.0236761
0.0198386
0.0167786
0.0138983
0.0111987
0.00914649
0.00175281
0.00174817
0.00176735
0.00177543
0.00179542
0.00184048
0.00191357
0.00200202
0.00221043
0.00357912
0.00869832
0.0138501
0.0176538
0.0282211
0.0406112
0.0359161
0.0278871
0.0226223
0.0194095
0.016541
0.0135822
0.0108784
0.0088455
0.00175171
0.0017501
0.00177857
0.00178205
0.0018063
0.00185576
0.00192637
0.00200977
0.00222687
0.00362011
0.00907006
0.0139737
0.01756
0.0276987
0.0374577
0.0326439
0.0261874
0.0222088
0.0195391
0.016709
0.0137569
0.0109009
0.00889311
0.00175134
0.00175735
0.00178785
0.00179346
0.00181767
0.00186583
0.00193325
0.00201207
0.00221974
0.0036444
0.0095189
0.0130335
0.0173197
0.0266796
0.0340585
0.0305345
0.0259057
0.022331
0.0196612
0.0167827
0.0130961
0.0095414
0.0082473
0.00175263
0.00176156
0.00180259
0.00180278
0.00182861
0.00187922
0.00194181
0.00201527
0.00223893
0.00405668
0.00960374
0.0120654
0.0169226
0.0253118
0.031013
0.0292306
0.0255607
0.022144
0.0199398
0.0164274
0.0126703
0.00984755
0.00777975
0.00175251
0.00177326
0.00181423
0.0018113
0.00183769
0.00188714
0.00194557
0.00201344
0.00221849
0.00387727
0.00901529
0.0110081
0.0162157
0.0235558
0.0288347
0.028807
0.025681
0.0224061
0.019367
0.0158627
0.0126493
0.0103115
0.00725946
0.00175396
0.00178078
0.0018279
0.00182349
0.00184897
0.00189623
0.00194794
0.0020099
0.0021985
0.00365718
0.00842335
0.0100681
0.0154375
0.021952
0.0267547
0.0285828
0.0258144
0.0230092
0.020054
0.0165752
0.0129769
0.0101343
0.00799585
0.00175486
0.00179599
0.00184311
0.00182921
0.00185485
0.00190136
0.00194961
0.00200584
0.00217812
0.00345006
0.00754786
0.00924111
0.0145818
0.0206777
0.0273066
0.0286981
0.0258697
0.0233144
0.0208443
0.0175827
0.014232
0.0110607
0.00850737
0.00175584
0.00180841
0.00185234
0.00184179
0.00186323
0.00190778
0.00194804
0.00200072
0.00215854
0.00328159
0.00700784
0.00848834
0.0137119
0.0193217
0.0284057
0.0298149
0.027362
0.0247257
0.0225091
0.0202705
0.0165894
0.0128318
0.00988335
0.00175815
0.00182215
0.00186851
0.00184748
0.00187258
0.00191134
0.00194886
0.00199216
0.00214344
0.00313392
0.00647833
0.00785735
0.0128647
0.0210378
0.029411
0.0325953
0.0338793
0.0326019
0.0298148
0.0292602
0.0264576
0.0219955
0.0173005
0.00176192
0.00183706
0.0018791
0.00185934
0.00186795
0.00190803
0.00193907
0.00198574
0.00212392
0.00299793
0.00614274
0.00725507
0.0120618
0.0206329
0.031127
0.036226
0.0412704
0.0415531
0.0425511
0.0433031
0.041192
0.0399284
0.0362148
0.00176648
0.00184522
0.00188503
0.00185645
0.00188387
0.00191426
0.00194043
0.00197715
0.00210314
0.00284235
0.00574795
0.00678357
0.0115867
0.0252513
0.0327871
0.0428219
0.0501254
0.0509774
0.0510035
0.050505
0.0496906
0.049291
0.0478691
0.00177169
0.00186511
0.00189929
0.00187908
0.00187803
0.00189919
0.00192792
0.00196058
0.00208853
0.00292477
0.00526084
0.00630317
0.0108105
0.0243859
0.0381052
0.0543403
0.0618995
0.0629343
0.0607471
0.0583606
0.0556638
0.0537651
0.0526552
0.00177601
0.00186371
0.00189701
0.00184912
0.00185121
0.00189997
0.00191123
0.00195637
0.00207816
0.0028844
0.00474729
0.00592888
0.0125005
0.0260665
0.0407571
0.0695841
0.0734123
0.0738739
0.0720457
0.0678646
0.0632723
0.0588384
0.0564003
0.00178467
0.00185799
0.00189237
0.00184867
0.00185189
0.00188457
0.00190475
0.00195258
0.00206847
0.00285124
0.00447561
0.00564903
0.0129042
0.0256991
0.0493461
0.0786514
0.0824681
0.0829943
0.0805817
0.0764145
0.0717019
0.0668519
0.0618298
0.00180258
0.00185631
0.00188853
0.00183716
0.0018529
0.00188642
0.00190897
0.0019494
0.00209274
0.00279576
0.00419589
0.00534995
0.0126037
0.0255354
0.0646802
0.0838183
0.0908634
0.0903644
0.08727
0.083139
0.0776129
0.0708558
0.0650724
0.00179912
0.00185664
0.00187202
0.00184285
0.00184491
0.0018756
0.00189851
0.00194052
0.00207772
0.00264473
0.00400405
0.00514277
0.0115729
0.0335195
0.0757255
0.0915821
0.0935993
0.0922019
0.0893998
0.084219
0.0760222
0.070517
0.0647549
0.00180188
0.00185375
0.00188805
0.00183452
0.00185008
0.00188911
0.00189066
0.00194407
0.00209127
0.00255509
0.00378783
0.00489087
0.0133499
0.047381
0.0873253
0.0945946
0.0980467
0.0916831
0.0859169
0.0805728
0.0697404
0.0516633
0.0394014
0.00181303
0.00188079
0.00188352
0.00184613
0.00185177
0.0018771
0.00188784
0.00193711
0.002072
0.00240666
0.00361419
0.00663517
0.0153054
0.0552825
0.0854599
0.0899692
0.0883784
0.0828951
0.0719191
0.0536898
0.0313299
0.020009
0.0143323
0.00183487
0.00187176
0.00189246
0.00185699
0.0018577
0.00187679
0.00190037
0.00194315
0.00208023
0.00254335
0.00405772
0.00678318
0.0185424
0.0600252
0.0785255
0.0828476
0.0773229
0.0667371
0.0451694
0.0229209
0.0115881
0.00864974
0.00549153
0.00181949
0.00187581
0.00188739
0.00184263
0.00182769
0.00187461
0.00189497
0.00193957
0.00205847
0.00261322
0.00449201
0.00931102
0.0299659
0.0659226
0.0810071
0.0766932
0.0671841
0.0464263
0.02704
0.00918885
0.00593681
0.00347246
0.00257476
0.00181926
0.00187583
0.0018778
0.00186233
0.00184202
0.00187767
0.00189703
0.00194119
0.0020549
0.00259574
0.0055419
0.00907048
0.028283
0.0645361
0.0776202
0.0695589
0.054024
0.0342168
0.0140837
0.00490998
0.00318634
0.0023016
0.0021777
0.00182472
0.00188841
0.00189061
0.00185717
0.00184971
0.00187568
0.00189735
0.00194
0.00209574
0.00271733
0.00444226
0.0097652
0.0312869
0.0649688
0.0697787
0.062094
0.0433429
0.0218309
0.00639823
0.00353157
0.00239664
0.00221564
0.00221448
0.00182876
0.00188054
0.00186766
0.00183138
0.00183763
0.0018795
0.0019008
0.00193073
0.00210321
0.0026622
0.00895729
0.0152936
0.0344125
0.0639761
0.0642101
0.0526527
0.0313069
0.01008
0.00490879
0.00266027
0.00230592
0.00226617
0.00226699
0.00183143
0.00184686
0.00185005
0.0018053
0.00181509
0.0018497
0.0019103
0.00192957
0.00212549
0.00345237
0.00874455
0.0145667
0.0374243
0.0634247
0.0591723
0.0414409
0.0180797
0.00604412
0.00338289
0.0024411
0.00233334
0.00229564
0.00228196
0.00182897
0.00182695
0.00180152
0.00183407
0.0017965
0.00183655
0.00190038
0.00193935
0.00210287
0.0036605
0.00731251
0.0139809
0.0405192
0.0585893
0.0505062
0.0266076
0.00850469
0.00442244
0.00270129
0.00239953
0.00231339
0.00226098
0.0022243
0.00180638
0.00185215
0.00180149
0.00186232
0.00180901
0.00186084
0.00190324
0.00194471
0.00214906
0.00365692
0.00921735
0.0170432
0.0463349
0.0531662
0.0365007
0.0124611
0.00622759
0.00312549
0.00245298
0.00229389
0.00222159
0.00216237
0.00213458
0.0017963
0.0018836
0.00182682
0.00187715
0.00182638
0.00189386
0.00188456
0.00195046
0.00220246
0.00424077
0.00997898
0.0272973
0.0449563
0.0431001
0.0212704
0.00732694
0.004013
0.00252603
0.00226545