/*--------------------------------*- C++ -*----------------------------------*\
  =========                 |
  \\      /  F ield         | OpenFOAM: The Open Source CFD Toolbox
   \\    /   O peration     | Website:  https://openfoam.org
    \\  /    A nd           | Version:  7
     \\/     M anipulation  |
\*---------------------------------------------------------------------------*/
FoamFile
{
    version     2.0;
    format      ascii;
    class       volScalarField;
    location    "150";
    object      yPlus;
}
// * * * * * * * * * * * * * * * * * * * * * * * * * * * * * * * * * * * * * //

dimensions      [0 0 0 0 0 0 0];

internalField   uniform 0;

boundaryField
{
    inlet
    {
        type            calculated;
        value           uniform 0;
    }
    outlet
    {
        type            calculated;
        value           uniform 0;
    }
    suction_side
    {
        type            calculated;
        value           nonuniform List<scalar> 
56
(
18.8602
20.1271
23.628
29.2455
35.9722
41.5746
47.1944
51.5465
49.0343
33.7632
23.6998
27.6579
26.1038
26.6472
26.3356
25.6286
35.0421
43.6937
47.4791
48.9499
47.3409
45.8384
42.7016
39.1508
39.0573
36.2095
29.4454
24.7517
22.2728
20.7783
19.1725
18.1707
17.861
17.1619
15.6967
13.6181
14.4474
17.4896
20.5965
23.388
25.5701
27.1505
28.252
29.1082
29.7628
30.2331
30.6464
30.9367
30.3719
29.9341
30.2447
29.4234
26.8918
25.9121
27.1124
31.6919
)
;
    }
    pressure_side
    {
        type            calculated;
        value           nonuniform List<scalar> 
56
(
37.8645
36.3972
36.4875
36.1497
36.2215
36.2995
36.3897
36.5191
36.5984
36.575
36.5491
36.4856
36.4092
36.3248
36.2267
36.1281
36.0116
35.8824
35.7258
35.5429
35.3309
35.0989
34.8697
34.6665
34.528
34.4698
34.4919
34.5841
34.7478
34.9342
35.068
35.0255
34.4995
33.3838
31.6907
29.2936
26.2392
22.5117
18.254
13.8927
10.1291
5.47655
4.51729
4.38661
4.81073
5.41312
6.5441
7.09197
9.10724
9.27962
11.1833
11.0576
13.3844
14.3655
15.9443
16.1965
)
;
    }
    trailing_edge
    {
        type            calculated;
        value           nonuniform List<scalar> 2(136.428 119.965);
    }
    defaultFaces
    {
        type            empty;
    }
}


// ************************************************************************* //
