/*--------------------------------*- C++ -*----------------------------------*\
  =========                 |
  \\      /  F ield         | OpenFOAM: The Open Source CFD Toolbox
   \\    /   O peration     | Website:  https://openfoam.org
    \\  /    A nd           | Version:  7
     \\/     M anipulation  |
\*---------------------------------------------------------------------------*/
FoamFile
{
    version     2.0;
    format      ascii;
    class       volScalarField;
    location    "55";
    object      k;
}
// * * * * * * * * * * * * * * * * * * * * * * * * * * * * * * * * * * * * * //

dimensions      [0 2 -2 0 0 0 0];

internalField   nonuniform List<scalar> 
17475
(
0.00763366
0.0124983
0.0125514
0.0125508
0.0125506
0.0125505
0.0125505
0.0125505
0.0125504
0.0125502
0.0125503
0.0125506
0.0125503
0.0125503
0.0125505
0.0125503
0.0125503
0.0125505
0.0125503
0.0125502
0.0125508
0.012551
0.0125495
0.0125515
0.0125469
0.0125587
0.0125588
0.012559
0.0125591
0.0125588
0.0125587
0.0125587
0.0125586
0.0125586
0.0125585
0.0125584
0.0125583
0.0125581
0.0125586
0.0125629
0.0125695
0.012576
0.0125821
0.0125878
0.0125928
0.0125975
0.0126018
0.0126057
0.0126092
0.0126126
0.0126156
0.0126185
0.0126207
0.0126101
0.0120188
0.000246145
0.00440845
0.00528565
0.0053044
0.00529495
0.00529061
0.00528857
0.00528727
0.00528655
0.00528601
0.0052857
0.0052854
0.00528519
0.00528504
0.00528486
0.00528476
0.00528463
0.00528452
0.00528439
0.00528432
0.00528424
0.00528415
0.00528515
0.00528289
0.00528683
0.00529075
0.00529366
0.00529379
0.00529383
0.00529338
0.00529321
0.00529318
0.00529317
0.00529316
0.00529318
0.00529313
0.00529311
0.00529286
0.00529193
0.00529282
0.00529468
0.00529684
0.0052991
0.00530129
0.00530345
0.00530551
0.0053076
0.00530973
0.00531213
0.00531497
0.0053188
0.00532413
0.00532137
0.00502947
0.00162961
3.09234e-05
0.00184651
0.00307713
0.0031951
0.00318633
0.0031774
0.0031724
0.0031694
0.00316757
0.00316627
0.00316538
0.00316471
0.0031642
0.00316376
0.0031634
0.00316308
0.00316278
0.00316251
0.00316226
0.003162
0.00316175
0.00316204
0.00316163
0.00316319
0.00316423
0.00316567
0.00316756
0.00316839
0.0031684
0.00316824
0.00316806
0.00316812
0.00316824
0.00316838
0.00316853
0.00316867
0.00316881
0.00316852
0.00316818
0.00316849
0.00316908
0.00316987
0.00317082
0.00317191
0.00317315
0.00317456
0.00317626
0.00317846
0.00318148
0.00318596
0.00319294
0.00320136
0.00315739
0.00249681
0.000283317
9.86396e-06
0.000848739
0.00201176
0.00223581
0.00224416
0.00223405
0.00222722
0.00222292
0.00222007
0.00221809
0.0022167
0.00221565
0.0022148
0.0022141
0.00221351
0.00221299
0.0022125
0.00221205
0.00221162
0.0022112
0.00221108
0.00221069
0.00221138
0.00221211
0.00221286
0.00221343
0.00221412
0.00221488
0.00221515
0.0022152
0.00221504
0.00221519
0.00221544
0.00221573
0.00221602
0.00221635
0.00221666
0.00221656
0.00221658
0.00221703
0.00221756
0.00221821
0.00221902
0.00222003
0.00222128
0.00222285
0.00222489
0.0022277
0.00223177
0.00223793
0.00224706
0.00224987
0.00213838
0.00133347
8.90771e-05
4.46728e-06
0.000439636
0.00138541
0.00168585
0.00171888
0.00171186
0.0017043
0.00169918
0.00169565
0.00169317
0.00169137
0.00168999
0.00168888
0.00168794
0.00168713
0.00168641
0.00168576
0.00168511
0.0016845
0.0016841
0.00168353
0.0016837
0.0016839
0.00168412
0.00168442
0.00168477
0.0016851
0.00168542
0.00168578
0.00168593
0.00168593
0.00168618
0.00168656
0.00168698
0.00168743
0.00168793
0.00168832
0.00168839
0.00168886
0.00168948
0.00169014
0.00169091
0.00169184
0.00169298
0.00169443
0.00169629
0.00169872
0.0017021
0.00170694
0.00171403
0.00172267
0.00171145
0.00153775
0.000771971
4.19234e-05
2.44582e-06
0.000256276
0.000986707
0.00132569
0.00138426
0.00138321
0.0013759
0.0013704
0.00136646
0.0013636
0.00136152
0.0013599
0.00135856
0.00135742
0.00135642
0.00135552
0.0013547
0.00135387
0.00135321
0.00135245
0.00135221
0.00135204
0.00135187
0.00135177
0.00135173
0.0013518
0.00135191
0.00135209
0.00135233
0.00135265
0.00135278
0.00135314
0.00135364
0.00135419
0.00135479
0.00135547
0.0013559
0.00135632
0.00135705
0.00135785
0.00135867
0.00135959
0.00136067
0.00136198
0.00136364
0.00136579
0.00136855
0.00137228
0.00137755
0.00138467
0.00139017
0.00136186
0.00114475
0.000485635
2.44505e-05
1.51754e-06
0.000164879
0.000724214
0.00106994
0.0011512
0.0011576
0.00115169
0.00114617
0.00114201
0.00113892
0.00113665
0.00113485
0.00113333
0.00113203
0.00113087
0.0011298
0.00112882
0.00112793
0.00112695
0.00112631
0.00112583
0.00112539
0.00112495
0.00112458
0.00112428
0.00112416
0.00112405
0.0011241
0.00112432
0.00112473
0.00112505
0.00112548
0.0011261
0.00112679
0.00112754
0.00112837
0.00112895
0.00112967
0.00113061
0.00113156
0.00113255
0.00113362
0.00113484
0.00113631
0.00113815
0.00114054
0.00114351
0.00114735
0.00115261
0.00115923
0.00116016
0.00111502
0.000874909
0.000329999
1.6057e-05
1.03027e-06
0.000114715
0.000547505
0.000879266
0.000978908
0.000993144
0.000989402
0.000984162
0.000980002
0.000976856
0.000974444
0.000972519
0.000970817
0.000969325
0.000968074
0.000966856
0.000965738
0.000964581
0.000963648
0.000962784
0.000962046
0.000961374
0.00096068
0.000960035
0.000959515
0.000959235
0.000958969
0.000958912
0.000959095
0.000959562
0.000960051
0.000960564
0.000961311
0.000962196
0.000963141
0.00096407
0.000964865
0.000965878
0.000967007
0.000968114
0.000969265
0.000970465
0.000971838
0.000973445
0.000975418
0.0009779
0.000980853
0.000984718
0.000989913
0.000995343
0.000990945
0.000931193
0.000684747
0.000238019
1.12617e-05
7.46812e-07
8.4461e-05
0.000425846
0.00073295
0.000846322
0.00086817
0.000867176
0.000862482
0.000858419
0.000855238
0.000852814
0.000850817
0.000848932
0.000847244
0.000845941
0.000844546
0.000843128
0.000841996
0.000840778
0.000839601
0.000838589
0.000837668
0.000836672
0.000835746
0.000835097
0.00083465
0.000834182
0.000834008
0.000834179
0.000834776
0.000835421
0.000836082
0.000836975
0.00083808
0.000839211
0.000840263
0.000841373
0.000842633
0.000843884
0.000845133
0.000846473
0.000847753
0.000849189
0.000850899
0.000852889
0.000855385
0.000858416
0.000862199
0.000867068
0.000870781
0.000860925
0.000788908
0.000547369
0.000180334
8.40472e-06
5.68285e-07
6.48988e-05
0.000340073
0.000618802
0.000741372
0.000770231
0.000772345
0.000768594
0.000764548
0.000761295
0.00075898
0.000756932
0.000754955
0.000753119
0.000751779
0.000750201
0.000748662
0.000747297
0.000745645
0.000744084
0.000742802
0.000741696
0.000740412
0.000739173
0.000738288
0.000737567
0.000736823
0.000736563
0.000736825
0.000737568
0.000738381
0.000739219
0.000740252
0.000741595
0.000742895
0.000744221
0.000745702
0.000747113
0.000748346
0.000749753
0.000751287
0.000752607
0.000754037
0.000755713
0.000757692
0.000760358
0.000763466
0.000766943
0.000771237
0.000773206
0.000758311
0.000677466
0.000448151
0.000142317
6.57833e-06
4.48445e-07
5.15607e-05
0.000278154
0.000528735
0.000656373
0.000691601
0.00069679
0.000694194
0.000690207
0.000686818
0.000684615
0.000682786
0.000680945
0.000678918
0.000677442
0.000675921
0.000674182
0.000672621
0.000670597
0.000668556
0.0006669
0.000665577
0.000664083
0.000662657
0.00066149
0.000660447
0.000659314
0.000658962
0.000659322
0.00066013
0.000661067
0.000662122
0.000663442
0.000665115
0.000666496
0.00066825
0.000669872
0.000671334
0.000672581
0.000674108
0.00067565
0.000677013
0.000678389
0.000679966
0.000682255
0.000685076
0.000688254
0.000691365
0.000694965
0.000694913
0.000675591
0.00058857
0.000374628
0.000115832
5.33048e-06
3.64456e-07
4.21081e-05
0.000232418
0.00045704
0.000586318
0.000627376
0.000635243
0.000633686
0.000629873
0.000626555
0.000624615
0.000623199
0.000621412
0.000619131
0.000617532
0.000615995
0.000613952
0.000612212
0.000609829
0.00060749
0.000605676
0.00060394
0.000602123
0.00060059
0.000599309
0.000597923
0.000596543
0.000596035
0.000596278
0.000597225
0.000598316
0.000599677
0.000601285
0.000603217
0.000604847
0.000606846
0.000608732
0.000610162
0.000611327
0.00061299
0.00061465
0.00061587
0.000616957
0.000618766
0.000621534
0.000624516
0.000627745
0.00063036
0.000632953
0.000631133
0.000607767
0.000516761
0.000319104
9.66926e-05
4.44439e-06
3.03638e-07
3.52209e-05
0.000197883
0.000399466
0.000527689
0.000573913
0.000584068
0.000583835
0.000580044
0.000576426
0.000574905
0.000574416
0.000572555
0.000570156
0.000568513
0.000566632
0.000564371
0.000562473
0.000559885
0.000557568
0.000555708
0.000553381
0.000550999
0.000549786
0.000548859
0.000546807
0.000545065
0.000544763
0.00054527
0.00054603
0.000547047
0.000548848
0.00055065
0.000552653
0.000554611
0.000556707
0.000558855
0.000560398
0.000561446
0.000562507
0.000564171
0.000565571
0.000566884
0.000568617
0.000571374
0.000575003
0.000578158
0.000580171
0.000582008
0.000578557
0.000551395
0.000458005
0.000276184
8.23894e-05
3.79526e-06
2.57859e-07
3.00062e-05
0.000171201
0.000352753
0.000478654
0.000528246
0.000540285
0.000541189
0.000537601
0.000534715
0.000533408
0.000532902
0.000531162
0.000528935
0.0005272
0.000524902
0.000522505
0.000520109
0.000517394
0.00051483
0.000512671
0.000510298
0.000507972
0.000506803
0.000506318
0.000504487
0.000502404
0.000501539
0.00050194
0.000503031
0.000504576
0.000506228
0.000508039
0.000510005
0.000512022
0.000514149
0.000516341
0.00051783
0.000519052
0.000520357
0.000521915
0.000523468
0.000524874
0.000526351
0.000529042
0.000532972
0.000535731
0.000537662
0.000538557
0.000533358
0.000503265
0.000409195
0.000241858
7.11162e-05
3.26659e-06
2.22447e-07
2.59505e-05
0.000150074
0.000314241
0.00043454
0.00048659
0.000500778
0.000502357
0.000499392
0.000496626
0.000495639
0.000495197
0.000493574
0.000491504
0.000489599
0.000487235
0.000484664
0.000481974
0.000479122
0.000476475
0.000474112
0.000471967
0.00047024
0.000469664
0.000470596
0.000470646
0.000468941
0.00046824
0.000468395
0.000469076
0.000470243
0.000469758
0.000470595
0.000472343
0.000473985
0.000475986
0.000478042
0.00047976
0.000481302
0.000482649
0.000484192
0.000485797
0.000487251
0.000488774
0.000491245
0.000494826
0.000497476
0.000499167
0.000499373
0.000492369
0.000459862
0.000367704
0.000214386
6.22396e-05
2.84187e-06
1.94445e-07
2.27473e-05
0.000132959
0.000281847
0.000395566
0.00044898
0.000464808
0.000467131
0.000464715
0.000462313
0.000461475
0.000460968
0.000459428
0.000457458
0.000455458
0.000453138
0.00045054
0.000447655
0.000444794
0.000442294
0.000440053
0.00043885
0.000438991
0.000440709
0.000446504
0.00045972
0.000468302
0.000472819
0.000471738
0.000464938
0.000453689
0.000441683
0.000440626
0.000439898
0.000440494
0.000442114
0.000443862
0.000445601
0.000447269
0.00044863
0.000450035
0.000451649
0.000453138
0.000454583
0.000456836
0.000460117
0.000462656
0.000464079
0.000463563
0.000455126
0.000420738
0.000331552
0.00019162
5.49603e-05
2.49596e-06
1.69973e-07
2.00599e-05
0.000118681
0.000253962
0.00036087
0.000414716
0.00043194
0.000434981
0.000433093
0.000431045
0.000430281
0.000429673
0.000428203
0.000426338
0.000424322
0.000422128
0.000419569
0.00041658
0.000413875
0.000411788
0.000410411
0.000411249
0.000415061
0.000431506
0.000466929
0.000477287
0.000437282
0.000395199
0.0003969
0.000470052
0.000482417
0.000447633
0.00042122
0.000413666
0.000411782
0.000412035
0.000413248
0.00041475
0.000416456
0.000417818
0.000418975
0.000420491
0.000421969
0.000423399
0.000425465
0.00042843
0.000430827
0.000432052
0.00043093
0.000421274
0.00038574
0.000300472
0.000172647
4.89829e-05
2.21329e-06
1.33556e-07
1.73163e-05
0.000105295
0.000229051
0.000329222
0.000383217
0.000401712
0.000405488
0.000404084
0.000402323
0.000401584
0.000400893
0.000399478
0.000397737
0.00039579
0.000393782
0.000391274
0.000388318
0.000385925
0.000384249
0.00038428
0.00038897
0.000406731
0.00043665
0.000372371
0.000119302
2.17906e-06
1.21273e-05
0.000313161
0.000433272
0.000429543
0.00039571
0.000386966
0.000385199
0.000385526
0.000386741
0.000388426
0.000389739
0.000390737
0.00039213
0.000393498
0.000394861
0.000396735
0.000399393
0.00040163
0.000402647
0.000400982
0.000390328
0.000354059
0.000273287
0.000156271
4.38195e-05
1.96904e-06
4.93053e-08
1.22728e-05
8.93981e-05
0.000203848
0.000298255
0.000353549
0.000373618
0.000378257
0.000377339
0.000375797
0.000375057
0.000374293
0.000372924
0.000371322
0.000369528
0.00036771
0.000365122
0.000362287
0.000360117
0.00035919
0.000361074
0.000372673
0.000395514
0.000323512
8.74758e-05
3.93797e-07
0.000189536
0.000400398
0.000385881
0.000365583
0.000360733
0.000360264
0.000361048
0.000362623
0.000363949
0.00036473
0.000365985
0.000367222
0.000368471
0.000370143
0.000372523
0.000374616
0.00037547
0.000373371
0.000361973
0.000325166
0.000249357
0.000142069
3.88442e-05
1.62422e-06
6.64418e-08
1.2958e-05
8.30843e-05
0.00018666
0.000274125
0.000325599
0.000346066
0.000351304
0.000350876
0.000349431
0.000348406
0.000347631
0.000346422
0.000344707
0.000343052
0.000341044
0.000338654
0.000336173
0.000334083
0.000333722
0.000338038
0.000354032
0.000339763
0.000146474
9.91318e-06
4.89733e-05
0.000280975
0.000360373
0.000343688
0.00033533
0.000333894
0.000334971
0.000336394
0.000337756
0.000338559
0.000339691
0.000340968
0.000342177
0.000343751
0.000345903
0.000347839
0.000348527
0.000345996
0.000333824
0.000298457
0.000227231
0.000129568
3.68667e-05
1.80036e-06
9.48643e-08
1.2656e-05
7.85145e-05
0.000172913
0.000252081
0.000300131
0.000320177
0.000325512
0.000325171
0.000323884
0.000323022
0.000322057
0.000320985
0.000319436
0.000317741
0.000315686
0.000313587
0.0003113
0.000309195
0.000309137
0.000315036
0.000321003
0.000255446
7.34042e-05
4.77408e-06
8.41256e-08
3.31786e-07
2.48196e-05
0.000180302
0.000312136
0.000320375
0.000311256
0.000309078
0.000310092
0.000311198
0.000312459
0.000313188
0.000314407
0.000315657
0.000316906
0.000318461
0.000320443
0.00032236
0.000322947
0.000320148
0.000307618
0.000273098
0.000207166
0.000118039
3.33295e-05
1.52116e-06
9.56153e-08
1.15317e-05
7.17616e-05
0.00015806
0.000230466
0.000275909
0.000295841
0.000301533
0.00030141
0.000300278
0.000299519
0.000298466
0.000297398
0.000295989
0.000294342
0.000292319
0.000290374
0.000288376
0.000286323
0.00028647
0.000291607
0.000282608
0.000189433
4.91873e-05
6.70404e-06
1.24815e-06
5.11756e-07
4.4665e-07
3.65944e-07
3.72516e-07
1.77926e-06
2.00795e-05
0.000124567
0.000259619
0.000292727
0.000288253
0.000285857
0.000286935
0.000287925
0.000289034
0.000289757
0.000291042
0.000292414
0.000293732
0.000295293
0.000297198
0.000298955
0.000299321
0.00029624
0.000283483
0.000250053
0.000189024
0.000107627
3.00203e-05
1.34239e-06
8.76389e-08
1.04222e-05
6.51316e-05
0.000144194
0.000210561
0.000253537
0.000273361
0.000279377
0.000279541
0.000278512
0.000277762
0.000276813
0.000275749
0.000274396
0.000272751
0.000270793
0.000269116
0.000267365
0.000265511
0.000265697
0.000268017
0.000245199
0.000146773
4.0746e-05
9.20361e-06
3.69192e-06
3.23423e-06
3.47437e-06
3.18386e-06
2.34907e-06
3.94934e-06
2.1259e-05
9.69383e-05
0.00021597
0.000264584
0.000266382
0.000264415
0.000265468
0.000266575
0.000267618
0.000268294
0.00026952
0.000270988
0.000272481
0.000274086
0.000275921
0.000277466
0.000277598
0.000274269
0.00026138
0.000229183
0.000172767
9.82045e-05
2.70429e-05
1.1977e-06
7.90552e-08
9.39872e-06
5.91125e-05
0.000131602
0.00019249
0.00023299
0.000252559
0.000258854
0.000259322
0.000258386
0.00025767
0.000256845
0.000255803
0.000254474
0.000252836
0.000250999
0.000249558
0.00024806
0.00024641
0.000246469
0.000245544
0.000213446
0.000121634
3.88989e-05
1.06847e-05
5.05289e-06
5.03052e-06
5.88229e-06
5.73116e-06
5.07923e-06
8.66238e-06
2.55442e-05
8.4589e-05
0.000182318
0.000237679
0.000245493
0.000244741
0.000245778
0.000246981
0.000247973
0.000248643
0.000249855
0.000251415
0.000253001
0.000254682
0.000256461
0.000257754
0.000257581
0.000253994
0.000241151
0.000210364
0.000158248
8.97493e-05
2.44237e-05
1.0749e-06
7.10865e-08
8.4658e-06
5.36863e-05
0.000120239
0.000176133
0.00021414
0.000233335
0.000239814
0.000240578
0.000239764
0.00023909
0.000238367
0.000237331
0.000236036
0.000234423
0.000232743
0.000231501
0.000230242
0.000228739
0.000228413
0.000224711
0.000189284
0.000108994
3.97375e-05
1.08157e-05
5.80452e-06
6.65698e-06
8.67791e-06
9.71621e-06
1.01186e-05
1.56649e-05
3.15446e-05
7.8605e-05
0.000157685
0.000212857
0.000225871
0.000226594
0.000227727
0.00022899
0.00022992
0.000230564
0.00023174
0.000233425
0.000235104
0.000236876
0.000238581
0.000239603
0.000239136
0.000235331
0.000222617
0.000193302
0.000145144
8.20373e-05
2.20488e-05
9.6487e-07
6.38454e-08
7.61966e-06
4.87512e-05
0.000109882
0.000161226
0.000196761
0.000215399
0.000222062
0.000223169
0.000222503
0.000221874
0.000221171
0.000220111
0.000218859
0.000217315
0.000215743
0.000214697
0.000213676
0.000212222
0.00021142
0.000205915
0.000171227
0.000102768
4.43179e-05
1.2287e-05
6.84128e-06
8.35492e-06
1.19267e-05
1.49976e-05
1.71377e-05
2.34442e-05
3.80198e-05
7.87711e-05
0.000139517
0.000191254
0.000207543
0.000209751
0.000211069
0.000212298
0.000213248
0.000213871
0.000214984
0.00021685
0.000218514
0.0002204
0.000222001
0.000222785
0.000222046
0.000218091
0.00020561
0.000177852
0.000133365
7.50675e-05
1.99205e-05
8.61058e-07
5.73284e-08
6.8563e-06
4.42718e-05
0.000100459
0.000147645
0.000180738
0.000198279
0.000205458
0.000206924
0.000206335
0.00020513
0.000204914
0.000203866
0.000202769
0.00020125
0.000199561
0.000198819
0.000198126
0.00019668
0.000195386
0.000188886
0.000157161
0.000100331
5.17309e-05
1.75106e-05
8.31118e-06
9.64594e-06
1.44568e-05
2.02865e-05
2.47077e-05
3.2462e-05
4.73119e-05
8.08286e-05
0.000127532
0.000172456
0.000190688
0.000194053
0.000195563
0.000196713
0.000197689
0.000198344
0.000199458
0.000201048
0.000202795
0.000204982
0.000206491
0.000207136
0.00020601
0.000201913
0.0001898
0.000163659
0.000122546
6.86209e-05
1.79385e-05
7.63773e-07
5.14868e-08
6.17077e-06
4.01889e-05
9.18386e-05
0.000135182
0.000165611
0.000182939
0.000190076
0.00019154
0.000190874
0.000189935
0.000189607
0.00018865
0.000187501
0.000186256
0.000184561
0.000183878
0.000183463
0.000182096
0.000180403
0.000173345
0.000145366
9.90543e-05
5.93629e-05
2.68915e-05
1.11384e-05
1.0848e-05
1.62083e-05
2.49004e-05
3.50532e-05
4.74896e-05
6.50141e-05
8.88815e-05
0.00012053
0.000156884
0.00017512
0.0001794
0.000180975
0.000181817
0.000182728
0.000183853
0.000185004
0.000186553
0.000188267
0.000190506
0.000191804
0.000192103
0.000190911
0.000186784
0.000175085
0.000150423
0.000112641
6.26948e-05
1.61609e-05
6.79333e-07
4.62642e-08
5.55499e-06
3.64973e-05
8.38818e-05
0.000123644
0.000152331
0.000168972
0.000175849
0.000177474
0.000176773
0.000176225
0.000175443
0.000174624
0.000173604
0.000172296
0.000170963
0.000170254
0.000169952
0.000168805
0.00016671
0.000159815
0.000135401
9.75492e-05
6.66684e-05
3.91763e-05
1.84274e-05
1.38652e-05
1.75869e-05
2.95226e-05
4.92343e-05
7.4811e-05
9.63984e-05
0.000105367
0.000117881
0.000144263
0.00016163
0.000166124
0.000167656
0.000168633
0.000169593
0.000170489
0.000171825
0.000173431
0.000174967
0.000176878
0.000178071
0.000178094
0.000176912
0.000172933
0.000161453
0.000138261
0.000103407
5.72989e-05
1.45699e-05
6.05714e-07
4.16235e-08
5.00682e-06
3.3191e-05
7.6691e-05
0.000113195
0.000139959
0.000156036
0.000163023
0.000164768
0.000164466
0.000163427
0.000162788
0.00016191
0.000160951
0.000159759
0.000158812
0.000158344
0.000158034
0.000156877
0.000154903
0.000147998
0.000127034
9.81616e-05
7.54886e-05
5.47248e-05
3.24261e-05
2.02547e-05
2.06915e-05
2.7173e-05
5.80825e-05
0.000103959
0.000141835
0.000127661
0.000116254
0.00013464
0.00014974
0.000154498
0.0001558
0.000156812
0.000157391
0.000158578
0.000159971
0.000161592
0.000163224
0.000164699
0.000165791
0.000165483
0.000164422
0.000160613
0.000149232
0.000127348
9.50916e-05
5.23768e-05
1.31488e-05
5.41421e-07
3.75234e-08
4.52074e-06
3.02404e-05
7.05178e-05
0.000104264
0.000128985
0.000144434
0.00015155
0.000153616
0.000153404
0.00015251
0.000151631
0.00015078
0.000149702
0.000148612
0.000147765
0.000147477
0.000147267
0.000146262
0.000144379
0.000137798
0.000120257
9.92768e-05
8.93948e-05
7.8296e-05
5.57273e-05
3.48971e-05
2.83189e-05
2.92166e-05
4.82555e-05
0.000114967
0.00019079
0.000150398
0.000115971
0.000126459
0.00013976
0.000144235
0.000145245
0.000146227
0.000146966
0.000148084
0.000149441
0.000150974
0.000152433
0.000153802
0.000154583
0.000154494
0.000153409
0.000149482
0.000138425
0.000117732
8.78068e-05
4.79514e-05
1.18853e-05
4.8506e-07
3.39057e-08
4.09167e-06
2.76259e-05
6.51239e-05
9.64155e-05
0.000119464
0.000134303
0.000141277
0.000143526
0.000143688
0.000142941
0.000141891
0.000141003
0.000139933
0.000138863
0.000137943
0.000137696
0.000137514
0.000136899
0.000135031
0.000128954
0.000114874
0.000104309
0.000111752
0.00011608
9.59997e-05
6.47449e-05
4.56201e-05
3.82706e-05
4.52472e-05
0.000101355
0.000229519
0.000204085
0.000117891
0.000119702
0.000130916
0.000134995
0.000136051
0.00013678
0.000137569
0.000138672
0.000140016
0.000141411
0.000142659
0.000143844
0.00014456
0.000144566
0.000143517
0.000139385
0.000128523
0.000109072
8.14002e-05
4.40766e-05
1.07695e-05
4.36003e-07
3.07435e-08
3.71583e-06
2.52981e-05
6.02047e-05
8.93145e-05
0.00011087
0.000125134
0.000132099
0.000134535
0.000134967
0.000134366
0.000133142
0.000132145
0.000131166
0.000130125
0.000129217
0.000128969
0.000129041
0.000128629
0.000126786
0.000121194
0.000110602
0.000111675
0.000147698
0.000177847
0.000158152
0.000115429
8.28064e-05
6.14289e-05
5.80926e-05
9.39611e-05
0.000242703
0.000226634
0.000116354
0.000113645
0.000123453
0.000126942
0.000127827
0.000128421
0.00012922
0.000130293
0.000131594
0.000132828
0.000133857
0.000134865
0.000135551
0.000135568
0.000134505
0.000130289
0.000119616
0.00010133
7.5641e-05
4.06399e-05
9.79173e-06
3.93459e-07
2.79649e-08
3.38521e-06
2.32192e-05
5.57578e-05
8.287e-05
0.000103066
0.000116845
0.000123838
0.000126439
0.00012711
0.000126667
0.00012535
0.000124217
0.00012332
0.000122362
0.00012149
0.000121259
0.000121506
0.000121309
0.000119457
0.000114265
0.000107604
0.000122157
0.000199622
0.000269744
0.000248743
0.000186124
0.000139562
0.000101203
8.59927e-05
0.000111759
0.00026178
0.000234857
0.000112746
0.00010831
0.000116926
0.000119928
0.000120499
0.000121007
0.000121815
0.000122839
0.00012407
0.000125096
0.000125922
0.000126779
0.000127444
0.000127465
0.000126342
0.000122026
0.000111574
9.44356e-05
7.05083e-05
3.75701e-05
8.93605e-06
3.56631e-07
2.55203e-08
3.09327e-06
2.13559e-05
5.1731e-05
7.70405e-05
9.59955e-05
0.000109343
0.000116343
0.000119058
0.000119936
0.000119684
0.000118377
0.000117106
0.000116235
0.000115389
0.000114608
0.000114458
0.000114814
0.000114694
0.000112749
0.000107894
0.000105467
0.000133764
0.000271759
0.000385759
0.000353538
0.000269668
0.000203407
0.000150886
0.000127271
0.00016903
0.000319171
0.000231786
0.000107687
0.000103246
0.00011119
0.000113696
0.00011398
0.000114387
0.00011513
0.000116105
0.000117243
0.000118071
0.000118726
0.000119487
0.000120145
0.000120144
0.000118927
0.000114498
0.000104296
8.82486e-05
6.59232e-05
3.48442e-05
8.18731e-06
3.24803e-07
2.33714e-08
2.83576e-06
1.96915e-05
4.80995e-05
7.17623e-05
8.95539e-05
0.000102481
0.000109463
0.000112245
0.000113277
0.000113239
0.000112061
0.000110683
0.000109771
0.00010903
0.000108385
0.000108281
0.000108715
0.000108665
0.000106502
0.000102153
0.000101571
0.000158154
0.000371155
0.000528513
0.000463564
0.00035275
0.000265042
0.000198795
0.000180891
0.000304315
0.000416006
0.000206664
0.000107031
9.8962e-05
0.000105987
0.000108021
0.000108074
0.000108328
0.000108971
0.000109928
0.000110952
0.000111587
0.000112128
0.000112861
0.000113517
0.000113476
0.000112155
0.000107619
9.76883e-05
8.26679e-05
6.18098e-05
3.24224e-05
7.5325e-06
2.97237e-07
2.1487e-08
2.60925e-06
1.82099e-05
4.4827e-05
6.69773e-05
8.3646e-05
9.61134e-05
0.000103042
0.000105864
0.00010701
0.000107185
0.000106245
0.00010482
0.000103808
0.000103107
0.000102627
0.000102582
0.000103072
0.000103111
0.000100907
9.71313e-05
0.000101308
0.000187012
0.000488839
0.000679174
0.000569044
0.000423483
0.000322234
0.000262583
0.000303971
0.000561735
0.000543368
0.000218137
0.000105981
9.52026e-05
0.000101149
0.000102792
0.000102626
0.000102686
0.000103225
0.000104177
0.000105057
0.000105521
0.000106013
0.000106752
0.0001074
0.000107319
0.000105902
0.000101289
9.16489e-05
7.75982e-05
5.80847e-05
3.02523e-05
6.95858e-06
2.73335e-07
1.98236e-08
2.40915e-06
1.68885e-05
4.18808e-05
6.26364e-05
7.8196e-05
9.0108e-05
9.69216e-05
9.97652e-05
0.000101031
0.00010144
0.000100801
9.93958e-05
9.82397e-05
9.74935e-05
9.71706e-05
9.72263e-05
9.77822e-05
9.79325e-05
9.59972e-05
9.30166e-05
0.000105339
0.00024069
0.000654053
0.000846185
0.000658715
0.000471534
0.000366576
0.000362703
0.000564952
0.000875325
0.000659413
0.000245314
0.000107399
9.22443e-05
9.66285e-05
9.79312e-05
9.75057e-05
9.73696e-05
9.78233e-05
9.87465e-05
9.94503e-05
9.98217e-05
0.000100301
0.000101036
0.000101654
0.000101525
0.000100031
9.5385e-05
8.60831e-05
7.29653e-05
5.46847e-05
2.82912e-05
6.45005e-06
2.52339e-07
1.8353e-08
2.23239e-06
1.57089e-05
3.92298e-05
5.87076e-05
7.31336e-05
8.43866e-05
9.10475e-05
9.39197e-05
9.53118e-05
9.59494e-05
9.56189e-05
9.43126e-05
9.29989e-05
9.2175e-05
9.19412e-05
9.21148e-05
9.27422e-05
9.30278e-05
9.16002e-05
8.95433e-05
0.000108973
0.000290213
0.000855919
0.00102335
0.000739846
0.000517424
0.000447425
0.000566616
0.00092395
0.00105543
0.000671308
0.00024433
0.000106906
8.90865e-05
9.24181e-05
9.33187e-05
9.26368e-05
9.23467e-05
9.27656e-05
9.3593e-05
9.41144e-05
9.44434e-05
9.49238e-05
9.56325e-05
9.61916e-05
9.59952e-05
9.44092e-05
8.98088e-05
8.09106e-05
6.86824e-05
5.15402e-05
2.65015e-05
5.99515e-06
2.33761e-07
1.7039e-08
2.07419e-06
1.46551e-05
3.6841e-05
5.51285e-05
6.83836e-05
7.89097e-05
8.54908e-05
8.84839e-05
8.99136e-05
9.06904e-05
9.06263e-05
8.95131e-05
8.80474e-05
8.7149e-05
8.69491e-05
8.7214e-05
8.79245e-05
8.83113e-05
8.74022e-05
8.62408e-05
0.000112195
0.000338176
0.000937776
0.0011434
0.000799979
0.000564512
0.0005752
0.000846061
0.00116792
0.00112107
0.000647093
0.000240904
0.000105398
8.58661e-05
8.83038e-05
8.87964e-05
8.79056e-05
8.75876e-05
8.8047e-05
8.87068e-05
8.90459e-05
8.93475e-05
8.98144e-05
9.04856e-05
9.09861e-05
9.06772e-05
8.89808e-05
8.45163e-05
7.60777e-05
6.47137e-05
4.86449e-05
2.48865e-05
5.60193e-06
2.18568e-07
1.58642e-08
1.93274e-06
1.36947e-05
3.46584e-05
5.18388e-05
6.39685e-05
7.37763e-05
8.03608e-05
8.35627e-05
8.49134e-05
8.56995e-05
8.58267e-05
8.49693e-05
8.34294e-05
8.2479e-05
8.23022e-05
8.26433e-05
8.34004e-05
8.37847e-05
8.33144e-05
8.31158e-05
0.000113165
0.00036697
0.000990824
0.00118306
0.000843184
0.000652949
0.000752464
0.00107319
0.00126916
0.00117847
0.000609187
0.000236922
0.000104642
8.22579e-05
8.42756e-05
8.42967e-05
8.32657e-05
8.30258e-05
8.3623e-05
8.40694e-05
8.42105e-05
8.44246e-05
8.49001e-05
8.55932e-05
8.6036e-05
8.55899e-05
8.38257e-05
7.95145e-05
7.15527e-05
6.10451e-05
4.59863e-05
2.3427e-05
5.25422e-06
2.05851e-07
1.48033e-08
1.80508e-06
1.28277e-05
3.26693e-05
4.88359e-05
5.99188e-05
6.90501e-05
7.56794e-05
7.90685e-05
8.02482e-05
8.09019e-05
8.11523e-05
8.06544e-05
7.91367e-05
7.81112e-05
7.80087e-05
7.84376e-05
7.91555e-05
7.94789e-05
7.92687e-05
7.98986e-05
0.000107229
0.000370284
0.00097195
0.00116366
0.000873547
0.00074664
0.000904719
0.00117057
0.00136745
0.00123308
0.000610208
0.000246134
0.000104275
7.93945e-05
8.0704e-05
7.98872e-05
7.87706e-05
7.86781e-05
7.94275e-05
7.96357e-05
7.95938e-05
7.96757e-05
8.01683e-05
8.0972e-05
8.13752e-05
8.08108e-05
7.90163e-05
7.48204e-05
6.73198e-05
5.76909e-05
4.35835e-05
2.21072e-05
4.94191e-06
1.94395e-07
1.38524e-08
1.69017e-06
1.20403e-05
3.08341e-05
4.60783e-05
5.62113e-05
6.47259e-05
7.1439e-05
7.48913e-05
7.58828e-05
7.63541e-05
7.66781e-05
7.65099e-05
7.51936e-05
7.40204e-05
7.39403e-05
7.44578e-05
7.51224e-05
7.53644e-05
7.5317e-05
7.64461e-05
9.97442e-05
0.000344083
0.000955765
0.00113838
0.000924032
0.000863641
0.000986898
0.00121757
0.00141528
0.00116133
0.000625437
0.000247625
0.000104745
7.81539e-05
7.70945e-05
7.56461e-05
7.44735e-05
7.45871e-05
7.53832e-05
7.5409e-05
7.52366e-05
7.51992e-05
7.57245e-05
7.66649e-05
7.70635e-05
7.64444e-05
7.45544e-05
7.03262e-05
6.33323e-05
5.46378e-05
4.14282e-05
2.09215e-05
4.66346e-06
1.84135e-07
1.29745e-08
1.58373e-06
1.13061e-05
2.91604e-05
4.35605e-05
5.27634e-05
6.06976e-05
6.74623e-05
7.09307e-05
7.18715e-05
7.22184e-05
7.25254e-05
7.25609e-05
7.16088e-05
7.02349e-05
7.00147e-05
7.06336e-05
7.12296e-05
7.14057e-05
7.14888e-05
7.30088e-05
9.41367e-05
0.000287465
0.000897633
0.00110112
0.000937784
0.000897207
0.00100267
0.00124071
0.00141524
0.00133219
0.000744264
0.000272292
0.000118984
7.92422e-05
7.33702e-05
7.16113e-05
7.04587e-05
7.07737e-05
7.15097e-05
7.13824e-05
7.10875e-05
7.09685e-05
7.15733e-05
7.26381e-05
7.30469e-05
7.23563e-05
7.03269e-05
6.60076e-05
5.95502e-05
5.18149e-05
3.94418e-05
1.98238e-05
4.40766e-06
1.74856e-07
1.21557e-08
1.48452e-06
1.06154e-05
2.74984e-05
4.11123e-05
4.93806e-05
5.67579e-05
6.36881e-05
6.75421e-05
6.82163e-05
6.83917e-05
6.86652e-05
6.87725e-05
6.8157e-05
6.65493e-05
6.61561e-05
6.6888e-05
6.74294e-05
6.75744e-05
6.79097e-05
6.95625e-05
8.80907e-05
0.000250856
0.000753397
0.00111631
0.00104505
0.000930867
0.00102739
0.00121066
0.00141028
0.00134212
0.000883245
0.000365781
0.000124904
7.73956e-05
6.9604e-05
6.78781e-05
6.68722e-05
6.72687e-05
6.78522e-05
6.7472e-05
6.70258e-05
6.68597e-05
6.76304e-05
6.88014e-05
6.9146e-05
6.8405e-05
6.61377e-05
6.18055e-05
5.60008e-05
4.91263e-05
3.75332e-05
1.87897e-05
4.17134e-06
1.66285e-07
1.13895e-08
1.39142e-06
9.96589e-06
2.60148e-05
3.88984e-05
4.63004e-05
5.31077e-05
6.01799e-05
6.45014e-05
6.49522e-05
6.48519e-05
6.49668e-05
6.51628e-05
6.44832e-05
6.2973e-05
6.2556e-05
6.33847e-05
6.38939e-05
6.3997e-05
6.43637e-05
6.62619e-05
8.43573e-05
0.000219193
0.000690285
0.00112742
0.0010756
0.000960001
0.00100098
0.00116166
0.00136249
0.00138557
0.000924368
0.000372694
0.00012942
7.44502e-05
6.60485e-05
6.44624e-05
6.37737e-05
6.40271e-05
6.43238e-05
6.37728e-05
6.31251e-05
6.30399e-05