/*--------------------------------*- C++ -*----------------------------------*\
  =========                 |
  \\      /  F ield         | OpenFOAM: The Open Source CFD Toolbox
   \\    /   O peration     | Website:  https://openfoam.org
    \\  /    A nd           | Version:  7
     \\/     M anipulation  |
\*---------------------------------------------------------------------------*/
FoamFile
{
    version     2.0;
    format      ascii;
    class       volScalarField;
    location    "55";
    object      nut;
}
// * * * * * * * * * * * * * * * * * * * * * * * * * * * * * * * * * * * * * //

dimensions      [0 2 -1 0 0 0 0];

internalField   nonuniform List<scalar> 
17475
(
3.12042e-05
0.00018885
0.000188081
0.000188028
0.000188026
0.000188026
0.000188025
0.000188025
0.000188025
0.000188025
0.000188025
0.000188025
0.000188025
0.000188025
0.000188025
0.000188025
0.000188025
0.000188025
0.000188025
0.000188025
0.000188025
0.000188025
0.000188024
0.000188025
0.000188023
0.000188027
0.000188027
0.000188027
0.000188027
0.000188027
0.000188027
0.000188027
0.000188027
0.000188027
0.000188027
0.000188027
0.000188027
0.000188027
0.000188027
0.000188028
0.00018803
0.000188031
0.000188033
0.000188034
0.000188036
0.000188037
0.000188038
0.000188039
0.00018804
0.000188041
0.000188042
0.000188043
0.000188054
0.000188285
0.000150676
9.21724e-07
0.000115391
0.000172096
0.000176595
0.000176757
0.000176761
0.000176758
0.000176756
0.000176754
0.000176752
0.000176751
0.000176749
0.000176749
0.000176748
0.000176747
0.000176747
0.000176746
0.000176745
0.000176744
0.000176743
0.000176742
0.000176741
0.000176743
0.000176736
0.000176745
0.000176747
0.000176752
0.000176752
0.000176752
0.000176751
0.00017675
0.000176749
0.000176749
0.00017675
0.00017675
0.000176749
0.00017675
0.000176749
0.000176746
0.000176746
0.000176746
0.000176746
0.000176746
0.000176747
0.000176749
0.00017675
0.000176751
0.000176754
0.000176756
0.00017676
0.000176759
0.000176696
0.000175358
0.000153948
1.68141e-05
1.20115e-07
5.92151e-05
0.000151136
0.000168229
0.000169906
0.000170015
0.000170018
0.000170013
0.000170006
0.000169998
0.000169994
0.000169991
0.000169988
0.000169985
0.000169984
0.000169982
0.000169979
0.000169978
0.000169976
0.000169973
0.000169971
0.000169973
0.000169973
0.000169978
0.00016998
0.000169981
0.000169988
0.000169991
0.000169992
0.000169991
0.00016999
0.000169991
0.000169992
0.000169995
0.000169996
0.000169996
0.000169998
0.000169996
0.000169994
0.000169993
0.000169993
0.000169989
0.000169987
0.000169988
0.000169991
0.000169993
0.000169995
0.00017
0.000170006
0.000170011
0.000169973
0.00016934
0.000161172
0.000102872
3.0434e-06
3.8608e-08
3.04505e-05
0.000127828
0.000159092
0.000164766
0.000165343
0.000165402
0.0001654
0.000165385
0.000165371
0.000165364
0.000165358
0.000165352
0.000165344
0.000165341
0.000165337
0.000165331
0.000165327
0.000165324
0.000165318
0.000165315
0.000165316
0.000165322
0.000165325
0.000165329
0.000165331
0.000165334
0.00016534
0.000165341
0.000165338
0.000165337
0.000165339
0.000165345
0.000165351
0.000165353
0.000165355
0.00016536
0.000165357
0.000165356
0.000165358
0.00016536
0.000165353
0.000165351
0.000165357
0.000165367
0.000165374
0.000165379
0.000165387
0.000165393
0.000165383
0.000165158
0.000162517
0.000144084
6.41595e-05
1.07972e-06
1.75572e-08
1.70663e-05
0.000104931
0.000148986
0.000159909
0.000161709
0.000161934
0.000161955
0.000161936
0.000161919
0.000161914
0.000161906
0.000161895
0.000161879
0.000161875
0.000161869
0.000161861
0.000161849
0.000161844
0.000161838
0.000161831
0.000161833
0.000161834
0.000161831
0.000161844
0.000161849
0.000161844
0.000161844
0.00016184
0.000161832
0.000161833
0.00016184
0.000161854
0.000161864
0.000161867
0.000161875
0.000161878
0.000161872
0.000161875
0.000161882
0.000161886
0.000161883
0.000161887
0.0001619
0.000161917
0.000161934
0.000161941
0.00016195
0.000161945
0.000161864
0.000161069
0.000154855
0.000126142
4.19521e-05
5.50597e-07
9.6286e-09
1.05255e-05
8.50361e-05
0.000138717
0.000154743
0.00015856
0.00015915
0.000159237
0.000159216
0.000159192
0.000159197
0.000159194
0.000159184
0.00015916
0.000159152
0.00015914
0.000159135
0.000159108
0.0001591
0.000159097
0.00015909
0.000159081
0.000159065
0.000159058
0.000159088
0.000159093
0.000159069
0.000159041
0.00015902
0.000159021
0.00015904
0.000159058
0.000159083
0.000159091
0.000159097
0.000159125
0.000159124
0.00015911
0.000159121
0.000159133
0.000159136
0.000159141
0.000159149
0.000159162
0.000159186
0.000159223
0.000159231
0.000159233
0.000159198
0.000158933
0.000157004
0.000146698
0.000109092
2.9122e-05
3.33234e-07
5.97928e-09
7.0524e-06
6.89803e-05
0.000128496
0.000149326
0.000155599
0.000156867
0.000157094
0.000157052
0.000156994
0.000157022
0.000157035
0.000157013
0.000156996
0.000156995
0.000156962
0.000156973
0.000156942
0.000156905
0.000156869
0.000156858
0.000156856
0.000156808
0.000156814
0.000156834
0.000156823
0.000156773
0.000156703
0.000156677
0.000156719
0.000156764
0.000156803
0.000156833
0.000156841
0.000156838
0.000156912
0.000156935
0.000156899
0.000156903
0.000156916
0.000156923
0.000156916
0.000156898
0.000156909
0.000156939
0.000157045
0.000157063
0.000157014
0.000156913
0.000156301
0.000152707
0.000138578
9.40748e-05
2.13176e-05
2.23065e-07
4.06108e-09
5.05255e-06
5.64674e-05
0.000118667
0.00014421
0.000152985
0.00015526
0.000155738
0.000155689
0.000155644
0.000155707
0.000155736
0.000155631
0.000155555
0.000155596
0.000155532
0.000155554
0.000155489
0.000155367
0.00015523
0.000155194
0.000155235
0.000155137
0.000155109
0.000155062
0.000155038
0.000154942
0.00015482
0.000154828
0.00015498
0.000155032
0.000155039
0.000155082
0.000155117
0.000155114
0.000155231
0.000155272
0.000155218
0.000155224
0.000155234
0.000155255
0.000155222
0.000155188
0.000155178
0.000155233
0.000155442
0.000155467
0.000155338
0.000155114
0.000153931
0.000148457
0.000130842
8.14259e-05
1.62201e-05
1.5746e-07
2.9441e-09
3.80154e-06
4.68057e-05
0.000109499
0.00013984
0.000151127
0.000154774
0.00015559
0.0001556
0.000155554
0.000155682
0.000155831
0.000155613
0.000155417
0.000155579
0.000155437
0.000155328
0.000155053
0.000154718
0.000154425
0.000154332
0.00015443
0.000154327
0.000154202
0.000154144
0.000154067
0.000153746
0.00015349
0.000153548
0.000153978
0.000154135
0.000153996
0.000154059
0.000154189
0.000154254
0.000154397
0.000154381
0.000154285
0.000154276
0.00015434
0.00015436
0.000154165
0.000154093
0.000154104
0.000154318
0.000154603
0.000154563
0.000154356
0.000153915
0.000151896
0.000144685
0.000123691
7.08616e-05
1.27999e-05
1.18744e-07
2.24001e-09
2.97113e-06
3.93365e-05
0.000101129
0.000136205
0.000149856
0.000155405
0.000156876
0.000156518
0.000156242
0.000156706
0.000157038
0.000156788
0.000156377
0.000156578
0.000156289
0.000155901
0.00015576
0.000155098
0.000154525
0.000154368
0.000154376
0.000154189
0.000154171
0.000154273
0.000153992
0.00015344
0.000153084
0.000153183
0.000153791
0.000154053
0.000153934
0.000153962
0.000154101
0.000154111
0.00015436
0.000154485
0.000154283
0.000153976
0.000154115
0.000154478
0.000154045
0.000153689
0.000153617
0.000154008
0.00015482
0.000154955
0.000154134
0.00015323
0.000150496
0.000141732
0.000117438
6.2465e-05
1.0439e-05
9.38679e-08
1.76742e-09
2.39221e-06
3.35406e-05
9.35772e-05
0.000132987
0.000148656
0.000155885
0.000158053
0.000157751
0.000157318
0.000157782
0.000158512
0.000158657
0.000158043
0.000158081
0.000158082
0.00015763
0.000157416
0.000156442
0.000155591
0.000155244
0.0001552
0.000155052
0.000154725
0.000154945
0.000155186
0.000154429
0.000153965
0.000154018
0.000154475
0.000154838
0.000154683
0.000154648
0.00015493
0.000154764
0.00015507
0.000154818
0.000154754
0.000154366
0.000154541
0.000154713
0.000154392
0.000154093
0.000154146
0.000155141
0.000156059
0.000156131
0.000155043
0.000153409
0.000149439
0.000139698
0.000112078
5.56147e-05
8.72412e-06
7.6796e-08
1.43628e-09
1.97403e-06
2.90013e-05
8.66334e-05
0.000129776
0.000147945
0.00015627
0.000158652
0.000158527
0.000158151
0.000159211
0.000160487
0.000162162
0.00015965
0.000159603
0.00016042
0.000158102
0.000158867
0.000157541
0.00015677
0.000156891
0.000156285
0.000156314
0.000157339
0.00015765
0.000157033
0.000155213
0.00015658
0.000156919
0.000155085
0.000154869
0.000155882
0.000154934
0.000156408
0.000156552
0.000156636
0.000156921
0.000156852
0.000155563
0.000155423
0.000155675
0.000155649
0.000154855
0.000154853
0.000156302
0.000156865
0.000158242
0.000155782
0.000154145
0.00014888
0.000137162
0.00010693
4.99156e-05
7.44318e-06
6.46409e-08
1.19657e-09
1.66614e-06
2.53857e-05
8.02342e-05
0.000125591
0.00014876
0.00015682
0.00016099
0.000160218
0.000156694
0.000158354
0.00016409
0.00016386
0.000162945
0.000162679
0.000161461
0.000160173
0.000160013
0.000159507
0.000158741
0.000158545
0.000157962
0.000156777
0.000157261
0.000159453
0.000158435
0.000157438
0.000157735
0.000158231
0.000157637
0.000157005
0.00015822
0.000159172
0.000159013
0.000158797
0.000158945
0.00015967
0.000159126
0.000158017
0.000156926
0.000156849
0.000157181
0.000157613
0.000157495
0.000158102
0.000160822
0.000161501
0.000159246
0.000156213
0.000151392
0.000137504
0.000101436
4.49308e-05
6.45602e-06
5.57267e-08
1.01606e-09
1.42879e-06
2.245e-05
7.41528e-05
0.000122211
0.000143182
0.000151071
0.000155388
0.0001549
0.00015635
0.000157968
0.000159154
0.000158908
0.000158551
0.000157931
0.000156192
0.000155004
0.000153206
0.000151798
0.000150585
0.000149822
0.000149172
0.000149064
0.000149547
0.000150897
0.000151114
0.000150398
0.000149472
0.000149483
0.000149631
0.000150023
0.000150502
0.000151205
0.000151018
0.000151155
0.000151322
0.000151703
0.000151851
0.000152561
0.000152651
0.000152678
0.000153351
0.000153981
0.000153652
0.000154029
0.000156322
0.000155408
0.000154043
0.000151141
0.000145005
0.000131026
9.57494e-05
4.05194e-05
5.63992e-06
4.80891e-08
8.76483e-10
1.24169e-06
2.00445e-05
6.86229e-05
0.000112022
0.000133458
0.000142747
0.000146135
0.000146758
0.000147026
0.000148252
0.000148958
0.000148747
0.000148207
0.000147293
0.00014621
0.000144742
0.000142804
0.000141143
0.000139783
0.000138612
0.000137774
0.000137472
0.000137743
0.000138528
0.000139519
0.000139327
0.000139045
0.000139018
0.000138785
0.000138694
0.00013855
0.000138482
0.000139447
0.000140003
0.000140555
0.000140904
0.000141654
0.000143096
0.000143536
0.000143913
0.00014467
0.000145151
0.00014538
0.000145557
0.000146176
0.00014596
0.000144884
0.000142138
0.00013536
0.000121117
8.77097e-05
3.6574e-05
4.98241e-06
4.18822e-08
7.66039e-10
1.09386e-06
1.796e-05
6.24004e-05
0.000103774
0.000124918
0.000133732
0.000137347
0.000138039
0.000138437
0.000139187
0.000139479
0.000139148
0.000138519
0.000137523
0.000136563
0.000135154
0.000132851
0.000130885
0.000129263
0.000127518
0.000126363
0.000125382
0.000124623
0.000125495
0.000129433
0.000111134
0.00010408
0.000105801
0.000117498
0.000127811
0.000125873
0.000126188
0.000126739
0.000128049
0.000129754
0.000130638
0.000131795
0.000133568
0.000134205
0.000134491
0.000135216
0.000135818
0.000136005
0.000136268
0.000136888
0.000136837
0.000135828
0.000132891
0.000126309
0.000112237
8.01493e-05
3.3436e-05
4.4283e-06
3.6793e-08
6.65224e-10
9.65556e-07
1.62087e-05
5.6776e-05
9.61806e-05
0.00011652
0.000125256
0.000128938
0.000129712
0.000129985
0.000130366
0.000130311
0.000129816
0.000129087
0.000128064
0.000127221
0.000125789
0.000123085
0.000121056
0.000118588
0.000115557
0.000114109
0.000111816
0.00011201
9.93846e-05
6.95918e-05
4.5491e-05
2.39488e-05
2.41692e-05
5.86402e-05
8.18311e-05
0.000115746
0.000112951
0.000113301
0.000115652
0.000117996
0.000119821
0.000122011
0.000124348
0.0001253
0.000125633
0.000126397
0.00012693
0.000127195
0.000127539
0.000128062
0.000128092
0.000127244
0.000124381
0.000117815
0.000104002
7.35308e-05
3.03573e-05
3.96843e-06
3.26326e-08
4.81456e-10
8.18145e-07
1.42752e-05
5.14568e-05
8.84401e-05
0.000108329
0.000117065
0.000120835
0.000121646
0.000121696
0.000121706
0.000121394
0.000120757
0.000119947
0.000119016
0.000118172
0.000116234
0.000113401
0.000110747
0.000107742
0.000104634
0.000102396
0.000102492
9.30648e-05
3.219e-05
1.55744e-06
1.42905e-09
1.40824e-08
1.23866e-05
4.16605e-05
0.00010322
0.000101926
0.000103786
0.000106607
0.00010969
0.0001123
0.000114784
0.000116432
0.000116872
0.000117728
0.000118314
0.000118698
0.000119053
0.00011953
0.000119666
0.000118977
0.000116271
0.000109834
9.62111e-05
6.75427e-05
2.75918e-05
3.56202e-06
2.90255e-08
1.16425e-10
4.8766e-07
1.16728e-05
4.53654e-05
7.98429e-05
9.90396e-05
0.000107776
0.000111509
0.000112258
0.00011196
0.000111549
0.000111057
0.000110296
0.000109434
0.000108483
0.000107488
0.000105191
0.00010224
9.91705e-05
9.59006e-05
9.30875e-05
9.26195e-05
8.11099e-05
2.34556e-05
1.31634e-06
2.11317e-10
5.61674e-06
5.96838e-05
8.81663e-05
9.18649e-05
9.50394e-05
9.85054e-05
0.000101754
0.000104501
0.000106137
0.000106798
0.000107794
0.000108521
0.000108997
0.000109302
0.000109736
0.00011003
0.000109571
0.000107125
0.00010098
8.78318e-05
6.1764e-05
2.53604e-05
3.17875e-06
2.40927e-08
1.57187e-10
5.74688e-07
1.08654e-05
4.03387e-05
6.94623e-05
8.5472e-05
9.34828e-05
9.65011e-05
9.6777e-05
9.63544e-05
9.55251e-05
9.48714e-05
9.44876e-05
9.31867e-05
9.19935e-05
9.03039e-05
8.87006e-05
8.68296e-05
8.37449e-05
8.02457e-05
7.83087e-05
7.42231e-05
4.87313e-05
6.54882e-06
1.08617e-07
1.11772e-06
2.44241e-05
6.78913e-05
7.70636e-05
7.91256e-05
8.18922e-05
8.55656e-05
8.75737e-05
8.87276e-05
8.97544e-05
9.0991e-05
9.20147e-05
9.27539e-05
9.34959e-05
9.42324e-05
9.50153e-05
9.4883e-05
9.31213e-05
8.78183e-05
7.61561e-05
5.37275e-05
2.26439e-05
3.07547e-06
2.69662e-08
3.39552e-10
5.81708e-07
1.05914e-05
3.75081e-05
6.31298e-05
7.79464e-05
8.52513e-05
8.8297e-05
8.85012e-05
8.78118e-05
8.74733e-05
8.67944e-05
8.59577e-05
8.49335e-05
8.34971e-05
8.16466e-05
8.05771e-05
7.89134e-05
7.55307e-05
7.26939e-05
7.0574e-05
6.17982e-05
2.97409e-05
3.56749e-06
1.41029e-07
4.12472e-10
4.18755e-09
8.61096e-07
1.3778e-05
4.93676e-05
6.83712e-05
7.16194e-05
7.38816e-05
7.71419e-05
7.85737e-05
8.02926e-05
8.09405e-05
8.19256e-05
8.3394e-05
8.46058e-05
8.55139e-05
8.64003e-05
8.69408e-05
8.67845e-05
8.51388e-05
8.0106e-05
6.92472e-05
4.86931e-05
2.05266e-05
2.75517e-06
2.24382e-08
3.73946e-10
5.49149e-07
9.75483e-06
3.429e-05
5.74339e-05
7.1186e-05
7.82045e-05
8.10777e-05
8.13663e-05
8.09489e-05
8.0591e-05
7.97348e-05
7.88256e-05
7.78921e-05
7.66099e-05
7.50445e-05
7.37192e-05
7.23561e-05
6.94387e-05
6.65363e-05
6.40541e-05
5.28152e-05
2.15882e-05
2.97802e-06
4.04851e-07
8.33357e-08
2.15149e-08
1.60329e-08
1.32348e-08
2.31518e-08
1.25606e-07
1.09476e-06
9.95167e-06
3.91766e-05
6.05904e-05
6.55382e-05
6.79953e-05
7.09258e-05
7.24161e-05
7.33594e-05
7.3886e-05
7.5129e-05
7.66242e-05
7.78057e-05
7.88427e-05
7.98714e-05
8.04073e-05
8.00681e-05
7.83985e-05
7.35156e-05
6.3134e-05
4.40806e-05
1.86727e-05
2.45976e-06
1.97738e-08
3.45197e-10
5.02184e-07
8.84295e-06
3.11705e-05
5.23e-05
6.52907e-05
7.22112e-05
7.4989e-05
7.53894e-05
7.49324e-05
7.44166e-05
7.39358e-05
7.30371e-05
7.19315e-05
7.05902e-05
6.89838e-05
6.78977e-05
6.67035e-05
6.43489e-05
6.16944e-05
5.85081e-05
4.51678e-05
1.75445e-05
3.1477e-06
8.43143e-07
5.9797e-07
7.42062e-07
9.01274e-07
8.12167e-07
5.0457e-07
5.09036e-07
1.62395e-06
8.83412e-06
3.2479e-05
5.42075e-05
6.03529e-05
6.27501e-05
6.52266e-05
6.68301e-05
6.7795e-05
6.84152e-05
6.93689e-05
7.06822e-05
7.20719e-05
7.32118e-05
7.42332e-05
7.46771e-05
7.4209e-05
7.25204e-05
6.77277e-05
5.77621e-05
4.01968e-05
1.69918e-05
2.20529e-06
1.7645e-08
3.11428e-10
4.53766e-07
8.01492e-06
2.83095e-05
4.76815e-05
5.98715e-05
6.6506e-05
6.92596e-05
6.97578e-05
6.93313e-05
6.88868e-05
6.85328e-05
6.7693e-05
6.65445e-05
6.52369e-05
6.37519e-05
6.27319e-05
6.16751e-05
5.97836e-05
5.75713e-05
5.38796e-05
3.94857e-05
1.60805e-05
3.72906e-06
1.22327e-06
9.82466e-07
1.31163e-06
1.75924e-06
1.67916e-06
1.21344e-06
1.37912e-06
2.49912e-06
9.11501e-06
2.87074e-05
4.90635e-05
5.5977e-05
5.83508e-05
6.03444e-05
6.18528e-05
6.27506e-05
6.33569e-05
6.42181e-05
6.55092e-05
6.68921e-05
6.81155e-05
6.91171e-05
6.94096e-05
6.87717e-05
6.70128e-05
6.24435e-05
5.29889e-05
3.67147e-05
1.54742e-05
1.98774e-06
1.58441e-08
2.80071e-10
4.08719e-07
7.26144e-06
2.57205e-05
4.34332e-05
5.47641e-05
6.09115e-05
6.35572e-05
6.4358e-05
6.40761e-05
6.36969e-05
6.34036e-05
6.2586e-05
6.14779e-05
6.02814e-05
5.89253e-05
5.80295e-05
5.71548e-05
5.55888e-05
5.36949e-05
5.00893e-05
3.78108e-05
1.61377e-05
4.56096e-06
1.38765e-06
1.09325e-06
1.56112e-06
2.46629e-06
2.69014e-06
2.23035e-06
2.57535e-06
3.61917e-06
1.00536e-05
2.69108e-05
4.49808e-05
5.19116e-05
5.42143e-05
5.59696e-05
5.72586e-05
5.81569e-05
5.86946e-05
5.94101e-05
6.07806e-05
6.21256e-05
6.33841e-05
6.42794e-05
6.44105e-05
6.36816e-05
6.19227e-05
5.75585e-05
4.86129e-05
3.35687e-05
1.4085e-05
1.79073e-06
1.42204e-08
2.51595e-10
3.67755e-07
6.56928e-06
2.32902e-05
3.94357e-05
4.98582e-05
5.53141e-05
5.82143e-05
5.90624e-05
5.87749e-05
5.8144e-05
5.80173e-05
5.73784e-05
5.64656e-05
5.52714e-05
5.35157e-05
5.31385e-05
5.28049e-05
5.14388e-05
4.97893e-05
4.64213e-05
3.5227e-05
1.69265e-05
5.92788e-06
1.68232e-06
1.24128e-06
1.84744e-06
3.27759e-06
3.9487e-06
3.54938e-06
3.70829e-06
4.93634e-06
1.17877e-05
2.59233e-05
4.1393e-05
4.79303e-05
5.02902e-05
5.18456e-05
5.27336e-05
5.37283e-05
5.42256e-05
5.47295e-05
5.60257e-05
5.70171e-05
5.85792e-05
5.95154e-05
5.95662e-05
5.86891e-05
5.69131e-05
5.28487e-05
4.44504e-05
3.06601e-05
1.28269e-05
1.61391e-06
1.26276e-08
2.25961e-10
3.30894e-07
5.93834e-06
2.10462e-05
3.56448e-05
4.52157e-05
5.01559e-05
5.30732e-05
5.38524e-05
5.36107e-05
5.26448e-05
5.2664e-05
5.18546e-05
5.12405e-05
5.06127e-05
4.85571e-05
4.85483e-05
4.85058e-05
4.73843e-05
4.56936e-05
4.26936e-05
3.25071e-05
1.80407e-05
7.90933e-06
2.5819e-06
1.42137e-06
1.99365e-06
3.83515e-06
5.03552e-06
4.70959e-06
4.97536e-06
6.96141e-06
1.38179e-05
2.60419e-05
3.7927e-05
4.40868e-05
4.6052e-05
4.73759e-05
4.82786e-05
4.9351e-05
4.96758e-05
5.02578e-05
5.13321e-05
5.20239e-05
5.39431e-05
5.459e-05
5.458e-05
5.35064e-05
5.17558e-05
4.82396e-05
4.04741e-05
2.79262e-05
1.1652e-05
1.44722e-06
1.1123e-08
2.02966e-10
2.97946e-07
5.36148e-06
1.90386e-05
3.20415e-05
3.87565e-05
4.45698e-05
4.82941e-05
4.90873e-05
4.86493e-05
4.69322e-05
4.80489e-05
4.78862e-05
4.73721e-05
4.65494e-05
4.55585e-05
4.36378e-05
4.47075e-05
4.39165e-05
4.22057e-05
3.82712e-05
3.05873e-05
1.91201e-05
1.01809e-05
4.29211e-06
1.85492e-06
2.14689e-06
4.22958e-06
5.88004e-06
6.26587e-06
7.59952e-06
1.08429e-05
1.6995e-05
2.53605e-05
3.42008e-05
3.93256e-05
4.24508e-05
4.35455e-05
4.26038e-05
4.28958e-05
4.5718e-05
4.68165e-05
4.77761e-05
4.8473e-05
4.96697e-05
4.85946e-05
4.97536e-05
4.87269e-05
4.7178e-05
4.34492e-05
3.66639e-05
2.53916e-05
1.05126e-05
1.29946e-06
9.83188e-09
1.82435e-10
2.68475e-07
4.87373e-06
1.70379e-05
2.86589e-05
3.67324e-05
4.15894e-05
4.41794e-05
4.62504e-05
4.43518e-05
4.44363e-05
4.36178e-05
4.33194e-05
4.46392e-05
4.27231e-05
4.33538e-05
4.26853e-05
4.18944e-05
4.11278e-05
3.90654e-05
3.67308e-05
2.94831e-05
1.99764e-05
1.26862e-05
6.87866e-06
3.19273e-06
2.71038e-06
4.56867e-06
6.79184e-06
8.78484e-06
1.29136e-05
1.78952e-05
2.14241e-05
2.55027e-05
3.16123e-05
3.72999e-05
3.91197e-05
4.09168e-05
4.11381e-05
4.11356e-05
4.19107e-05
4.38059e-05
4.50434e-05
4.4799e-05
4.56577e-05
4.7042e-05
4.49698e-05
4.44598e-05
4.35621e-05
3.98437e-05
3.31805e-05
2.28221e-05
9.63383e-06
1.16874e-06
8.7183e-09
1.64183e-10
2.42341e-07
4.45054e-06
1.58459e-05
2.66543e-05
3.40246e-05
3.92152e-05
4.2563e-05
4.2575e-05
4.30906e-05
4.19556e-05
4.19065e-05
4.15283e-05
4.10573e-05
4.11707e-05
4.09345e-05
4.05547e-05
4.00106e-05
3.91846e-05
3.85319e-05
3.58011e-05
2.93877e-05
2.17404e-05
1.57619e-05
1.06103e-05
5.98837e-06
4.05177e-06
5.4374e-06
6.18853e-06
1.08965e-05
1.97414e-05
2.90904e-05
2.76318e-05
2.56587e-05
3.1244e-05
3.53515e-05
3.83518e-05
3.87942e-05
3.98696e-05
4.02558e-05
4.0897e-05
4.14696e-05
4.26847e-05
4.42531e-05
4.47211e-05
4.45973e-05
4.31515e-05
4.27622e-05
4.23973e-05
3.76728e-05
3.18974e-05
2.14522e-05
8.79395e-06
1.0545e-06
7.75722e-09
1.48069e-10
2.19249e-07
4.08333e-06
1.50921e-05
2.58123e-05
3.33965e-05
3.83152e-05
4.07063e-05
4.19117e-05
4.1953e-05
4.18962e-05
4.13021e-05
4.10416e-05
4.03982e-05
3.98362e-05
3.85026e-05
3.81632e-05
3.75142e-05
3.71273e-05
3.64798e-05
3.44409e-05
2.99808e-05
2.42831e-05
2.05558e-05
1.66399e-05
1.10648e-05
7.31221e-06
7.59489e-06
6.75696e-06
9.67396e-06
2.38463e-05
4.26683e-05
3.50366e-05
2.74154e-05
3.01508e-05
3.45953e-05
3.65571e-05
3.66387e-05
3.80723e-05
3.86419e-05
3.91406e-05
3.97869e-05
4.06959e-05
4.16432e-05
4.25597e-05
4.24696e-05
4.2887e-05
4.20744e-05
4.01738e-05
3.67723e-05
3.01548e-05
2.05238e-05
8.12241e-06
9.53814e-07
6.92196e-09
1.33821e-10
1.98852e-07
3.74203e-06
1.41584e-05
2.48856e-05
3.20671e-05
3.68262e-05
3.89073e-05
3.97421e-05
4.02535e-05
4.00787e-05
3.95334e-05
3.91951e-05
3.87117e-05
3.80643e-05
3.68044e-05
3.61331e-05
3.593e-05
3.56199e-05
3.48849e-05
3.32384e-05
2.92985e-05
2.63659e-05
2.75328e-05
2.64011e-05
2.04179e-05
1.44352e-05
1.26909e-05
9.21609e-06
9.74104e-06
2.27305e-05
5.45623e-05
5.14377e-05
2.95102e-05
3.10322e-05
3.31939e-05
3.49999e-05
3.6016e-05
3.61633e-05
3.66273e-05
3.72274e-05
3.78959e-05
3.8615e-05
3.93984e-05
4.00893e-05
4.0403e-05
4.05313e-05
3.98878e-05
3.80401e-05
3.45089e-05
2.83777e-05
1.92992e-05
7.53984e-06
8.65367e-07
6.20141e-09
1.21375e-10
1.81024e-07
3.44122e-06
1.31305e-05
2.32724e-05
3.0241e-05
3.47364e-05
3.70483e-05
3.79257e-05
3.82155e-05
3.80344e-05
3.74251e-05
3.69654e-05
3.65557e-05
3.60673e-05
3.52639e-05
3.4543e-05
3.45505e-05
3.427e-05
3.37115e-05
3.19668e-05
2.88582e-05
2.89285e-05
3.66245e-05
4.26155e-05
3.59288e-05
2.74712e-05
2.411e-05
1.55471e-05
1.33587e-05
2.24419e-05
6.1694e-05
5.86859e-05
3.09298e-05
3.03492e-05
3.30633e-05
3.37621e-05
3.44314e-05
3.46746e-05
3.50628e-05
3.55993e-05
3.61666e-05
3.67641e-05
3.73928e-05
3.79593e-05
3.82978e-05
3.82162e-05
3.76179e-05
3.60569e-05
3.25404e-05
2.67622e-05
1.80826e-05
6.97954e-06
7.88117e-07
5.58024e-09
1.10436e-10
1.65351e-07
3.17269e-06
1.22288e-05
2.17112e-05
2.83483e-05
3.27669e-05
3.51752e-05
3.60985e-05
3.63757e-05
3.6205e-05
3.56324e-05
3.51209e-05
3.4747e-05
3.4359e-05
3.3841e-05
3.3423e-05
3.33427e-05
3.30864e-05
3.23563e-05
3.07143e-05
2.86768e-05
3.21515e-05
5.1474e-05
6.85459e-05
5.96335e-05
4.71521e-05
4.25926e-05
2.69098e-05
2.08938e-05
2.78232e-05
6.80632e-05
6.24569e-05
3.03838e-05
2.94172e-05
3.20015e-05
3.29251e-05
3.32362e-05
3.34658e-05
3.38072e-05
3.4204e-05
3.46115e-05
3.50485e-05
3.55264e-05
3.5974e-05
3.62614e-05
3.61905e-05
3.56373e-05
3.40912e-05
3.06609e-05
2.52585e-05
1.69941e-05
6.47691e-06
7.20822e-07
5.04585e-09
1.00809e-10
1.51493e-07
2.93197e-06
1.14072e-05
2.03316e-05
2.66241e-05
3.09257e-05
3.33255e-05
3.4282e-05
3.46052e-05
3.44667e-05
3.39177e-05
3.33866e-05
3.30393e-05
3.2722e-05
3.23853e-05
3.2192e-05
3.21362e-05
3.18586e-05
3.09429e-05
2.93725e-05
2.86012e-05
3.61059e-05
7.34504e-05
0.000100104
8.95282e-05
7.22825e-05
6.39921e-05
4.22174e-05
3.25035e-05
4.4047e-05
8.5508e-05
6.32508e-05
2.97637e-05
2.87249e-05
3.10158e-05
3.17804e-05
3.19589e-05
3.21486e-05
3.2435e-05
3.27759e-05
3.31246e-05
3.34283e-05
3.37507e-05
3.41032e-05
3.43633e-05
3.43084e-05
3.37811e-05
3.22268e-05
2.8908e-05
2.38184e-05
1.60064e-05
6.03484e-06
6.62109e-07
4.58619e-09
9.23515e-11
1.39255e-07
2.71668e-06
1.0662e-05
1.90577e-05
2.50066e-05
2.91667e-05
3.15288e-05
3.2505e-05
3.28696e-05
3.27795e-05
3.22716e-05
3.17488e-05
3.14333e-05
3.11854e-05
3.09522e-05
3.08322e-05
3.08453e-05
3.06715e-05
2.98229e-05
2.84376e-05
2.80941e-05
4.35099e-05
0.000102782
0.000144369
0.000121616
9.88377e-05
8.56153e-05
5.86088e-05
4.81577e-05
8.14379e-05
0.000113998
5.75367e-05
3.00623e-05
2.79199e-05
2.996e-05
3.05785e-05
3.06601e-05
3.07892e-05
3.10485e-05
3.13758e-05
3.16782e-05
3.1871e-05
3.20573e-05
3.23373e-05
3.25873e-05
3.25585e-05
3.20488e-05
3.04816e-05
2.72647e-05
2.24793e-05
1.50993e-05
5.64219e-06
6.10901e-07
4.18942e-09
8.49381e-11
1.28494e-07
2.52541e-06
9.99011e-06
1.78915e-05
2.34976e-05
2.74976e-05
2.98068e-05
3.0783e-05
3.11784e-05
3.11516e-05
3.07296e-05
3.0234e-05
2.99266e-05
2.97271e-05
2.95824e-05
2.95123e-05
2.95608e-05
2.94493e-05
2.86781e-05
2.74948e-05
2.85552e-05
5.26197e-05
0.000137854
0.000188757
0.000156053
0.000123458
0.000105737
7.9377e-05
8.47771e-05
0.000156823
0.000152182
6.16938e-05
3.01453e-05
2.71515e-05
2.88817e-05
2.94061e-05
2.94013e-05
2.94574e-05
2.96734e-05
2.99872e-05
3.02379e-05
3.03415e-05
3.04526e-05
3.06818e-05
3.09266e-05
3.09291e-05
3.04327e-05
2.88497e-05
2.57261e-05
2.12289e-05
1.42646e-05
5.29071e-06
5.66109e-07
3.84695e-09
7.83923e-11
1.18963e-07
2.35505e-06
9.38733e-06
1.68309e-05
2.20968e-05
2.59121e-05
2.81564e-05
2.91207e-05
2.95458e-05
2.96069e-05
2.93057e-05
2.88405e-05
2.85028e-05
2.83118e-05
2.82386e-05
2.82183e-05
2.83037e-05
2.82461e-05
2.75883e-05
2.66713e-05
3.01923e-05
6.91354e-05
0.000187877
0.000240021
0.000184758
0.000140655
0.000121688
0.000112394
0.000161717
0.000249222
0.000188921
7.03878e-05
3.08671e-05
2.65416e-05
2.78396e-05
2.82703e-05
2.81725e-05
2.81611e-05
2.83369e-05
2.86251e-05
2.88031e-05
2.88508e-05
2.89286e-05
2.91336e-05
2.93716e-05
2.93914e-05
2.89009e-05
2.73089e-05
2.42837e-05
2.00621e-05
1.34958e-05
4.9725e-06
5.26306e-07
3.54638e-09
7.25999e-11
1.10526e-07
2.20299e-06
8.84499e-06
1.58673e-05
2.0788e-05
2.43998e-05
2.65847e-05
2.754e-05
2.79916e-05
2.81436e-05
2.79704e-05
2.75454e-05
2.71484e-05
2.69341e-05
2.68991e-05
2.69232e-05
2.70417e-05
2.70489e-05
2.65648e-05
2.59382e-05
3.16344e-05
8.45562e-05
0.000249342
0.000295583
0.000212522
0.000157763
0.000149585
0.000178916
0.000271217
0.000307231
0.000195809
7.09997e-05
3.10188e-05
2.58496e-05
2.68257e-05
2.71239e-05
2.69527e-05
2.68955e-05
2.7056e-05
2.73054e-05
2.74049e-05
2.74165e-05
2.74886e-05
2.76807e-05
2.79025e-05
2.7916e-05
2.74109e-05
2.58361e-05
2.29275e-05
1.8968e-05
1.27794e-05
4.68263e-06
4.90651e-07
3.28163e-09
6.74193e-11
1.02934e-07
2.06939e-06
8.35173e-06
1.49764e-05
1.954e-05
2.29393e-05
2.51062e-05
2.60878e-05
2.65333e-05
2.67389e-05
2.66775e-05
2.63191e-05
2.58548e-05
2.56025e-05
2.5577e-05
2.56311e-05
2.57819e-05
2.58476e-05
2.55439e-05
2.52054e-05
3.29021e-05
9.95593e-05
0.000276317
0.000335079
0.000234095
0.000174764
0.000192977
0.000270499
0.000349139
0.000331616
0.000191115
7.07346e-05
3.08503e-05
2.51069e-05
2.58009e-05
2.59589e-05
2.57178e-05
2.56533e-05
2.58277e-05
2.60288e-05
2.60608e-05
2.60492e-05
2.61207e-05
2.63037e-05
2.65053e-05
2.64792e-05
2.59436e-05
2.44191e-05
2.16498e-05
1.7946e-05
1.21193e-05
4.42324e-06
4.60533e-07
3.07521e-09
6.27827e-11
9.61255e-08
1.94092e-06
7.89169e-06
1.41359e-05
1.8349e-05
2.15436e-05
2.37306e-05
2.47768e-05
2.51783e-05
2.53826e-05
2.54016e-05
2.51374e-05
2.4644e-05
2.43602e-05
2.43337e-05
2.44112e-05
2.45912e-05
2.4683e-05
2.45302e-05
2.44845e-05
3.3436e-05
0.00010884
0.000294661
0.00035089
0.000250659
0.000204561
0.00025257
0.000345624
0.000384729
0.000352812
0.000181665
7.01731e-05
3.08663e-05
2.42022e-05
2.47673e-05
2.47819e-05
2.44825e-05
2.44288e-05
2.46428e-05
2.47878e-05
2.47639e-05
2.47245e-05
2.48072e-05
2.5002e-05
2.51713e-05
2.50899e-05
2.45273e-05
2.30626e-05
2.04463e-05
1.70002e-05
1.15129e-05
4.18926e-06
4.34145e-07
2.90917e-09
5.85873e-11
8.99663e-08
1.82681e-06
7.46501e-06
1.3347e-05
1.72242e-05
2.02278e-05
2.2452e-05
2.35662e-05
2.38964e-05
2.40437e-05
2.41113e-05
2.39853e-05
2.35226e-05
2.32133e-05
2.31949e-05
2.32942e-05
2.34763e-05
2.3569e-05
2.35013e-05
2.3692e-05
3.18396e-05
0.000110322
0.000291176
0.000348819
0.000263155
0.00023595
0.000303201
0.000378642
0.000418873
0.00037252
0.000183323
7.34139e-05
3.09503e-05
2.34692e-05
2.38296e-05
2.36064e-05
2.32676e-05
2.32374e-05
2.34903e-05
2.35736e-05
2.35088e-05
2.34421e-05
2.35431e-05
2.37753e-05
2.3914e-05
2.37753e-05
2.31931e-05
2.17742e-05
1.93128e-05
1.61369e-05
1.09665e-05
3.97855e-06
4.10415e-07
2.75948e-09
5.48342e-11
8.43916e-08
1.7219e-06
7.06648e-06
1.26094e-05
1.61757e-05
1.9006e-05
2.12803e-05
2.2427e-05
2.26833e-05
2.27525e-05
2.28439e-05
2.28555e-05
2.2501e-05
2.21578e-05
2.21239e-05
2.22342e-05
2.24029e-05
2.24772e-05
2.24562e-05
2.27814e-05
2.97092e-05
0.000102792
0.000287939
0.000344322
0.000281441
0.00027451
0.000329702
0.000394578
0.000436932
0.000353036
0.000188814
7.42214e-05
3.12401e-05
2.31866e-05
2.28479e-05
2.24508e-05
2.20864e-05
2.20978e-05
2.23585e-05
2.23955e-05
2.23085e-05
2.22247e-05
2.23526e-05
2.26312e-05
2.275e-05
2.25648e-05
2.19498e-05
2.05282e-05
1.82373e-05
1.53509e-05
1.04762e-05
3.7869e-06
3.89037e-07
2.62481e-09
5.13751e-11
7.92014e-08
1.62299e-06
6.70127e-06
1.19346e-05
1.52005e-05
1.78675e-05
2.01792e-05
2.13443e-05
2.15756e-05
2.15881e-05
2.16711e-05
2.1776e-05
2.15778e-05
2.11867e-05
2.10813e-05
2.11936e-05
2.13309e-05
2.13821e-05
2.13967e-05
2.18293e-05
2.81034e-05
8.60794e-05
0.000271621
0.000335433
0.000288165
0.000286299
0.000333628
0.00040226
0.000439401
0.000406909
0.000225526
8.19314e-05
3.55916e-05
2.35648e-05
2.18102e-05
2.13293e-05
2.09681e-05
2.10264e-05
2.12655e-05
2.12623e-05
2.11492e-05
2.10589e-05
2.12282e-05
2.15524e-05
2.16586e-05
2.14296e-05
2.07647e-05
1.93195e-05
1.72055e-05
1.46169e-05
1.00198e-05
3.60744e-06
3.69201e-07
2.50334e-09
4.81469e-11
7.43413e-08
1.52901e-06
6.33664e-06
1.12808e-05
1.4251e-05
1.6759e-05
1.91363e-05
2.04334e-05
2.05898e-05
2.0543e-05
2.06094e-05
2.07463e-05
2.06753e-05
2.02159e-05
2.00272e-05
2.01378e-05
2.02411e-05
2.02798e-05
2.03701e-05
2.08415e-05
2.63586e-05
7.5328e-05
0.000228776
0.000341907
0.00032329
0.000297767
0.000340366
0.000392216
0.000439486
0.000411188
0.000268318
0.000110369
3.7456e-05
2.3074e-05
2.07313e-05
2.02698e-05
1.99608e-05
2.00434e-05
2.02358e-05
2.01555e-05
1.99993e-05
1.99076e-05
2.01419e-05
2.05072e-05
2.05867e-05
2.03253e-05
1.95787e-05
1.81365e-05
1.62245e-05
1.39038e-05
9.57211e-06
3.43536e-06
3.50716e-07
2.39093e-09
4.51228e-11
6.9762e-08
1.44028e-06
6.01157e-06
1.06915e-05
1.33914e-05