/*--------------------------------*- C++ -*----------------------------------*\
  =========                 |
  \\      /  F ield         | OpenFOAM: The Open Source CFD Toolbox
   \\    /   O peration     | Website:  https://openfoam.org
    \\  /    A nd           | Version:  7
     \\/     M anipulation  |
\*---------------------------------------------------------------------------*/
FoamFile
{
    version     2.0;
    format      ascii;
    class       volScalarField;
    location    "55";
    object      p;
}
// * * * * * * * * * * * * * * * * * * * * * * * * * * * * * * * * * * * * * //

dimensions      [0 2 -2 0 0 0 0];

internalField   nonuniform List<scalar> 
17475
(
0.748133
0.433592
0.344257
0.305791
0.283336
0.268531
0.258102
0.250504
0.244889
0.24074
0.237721
0.235593
0.234184
0.23336
0.233011
0.233046
0.233385
0.233956
0.234691
0.235529
0.236412
0.237283
0.238093
0.238794
0.239349
0.239725
0.239897
0.239846
0.239568
0.239066
0.238354
0.237454
0.236399
0.235226
0.233984
0.232722
0.231498
0.230372
0.229408
0.228675
0.228249
0.228214
0.228661
0.2297
0.231465
0.234127
0.237914
0.243145
0.250283
0.260038
0.273543
0.292672
0.320256
0.36294
0.384786
0.310034
0.324669
0.310478
0.291892
0.276251
0.264322
0.25533
0.248544
0.24343
0.239614
0.236827
0.234872
0.233595
0.232878
0.232619
0.232734
0.233144
0.233781
0.234578
0.235474
0.23641
0.237331
0.238186
0.238928
0.239517
0.239917
0.240103
0.240057
0.239774
0.239256
0.238519
0.237586
0.23649
0.235271
0.233976
0.232657
0.231371
0.23018
0.229147
0.228341
0.227835
0.227708
0.228049
0.228958
0.230558
0.233001
0.236484
0.241273
0.247741
0.25643
0.268159
0.284258
0.306613
0.342286
0.351882
0.277335
0.274577
0.272559
0.26644
0.259735
0.253228
0.247534
0.242824
0.239079
0.236207
0.234102
0.23266
0.231788
0.231401
0.231425
0.231788
0.232424
0.23327
0.234263
0.235344
0.236453
0.237534
0.238533
0.2394
0.240089
0.240562
0.240791
0.240758
0.240455
0.239887
0.239068
0.238026
0.236797
0.235424
0.233958
0.232455
0.230973
0.229574
0.228321
0.227281
0.22652
0.226107
0.226117
0.226627
0.227725
0.229511
0.232097
0.235611
0.240188
0.245945
0.2529
0.260728
0.268328
0.272775
0.264404
0.230724
0.239153
0.244189
0.244639
0.242825
0.240196
0.237441
0.234907
0.232771
0.231105
0.229923
0.22921
0.228932
0.229047
0.229509
0.230266
0.231267
0.232456
0.233776
0.235168
0.236571
0.237927
0.239176
0.240257
0.24112
0.241723
0.242029
0.242018
0.241681
0.241023
0.240062
0.238829
0.237368
0.235729
0.23397
0.232152
0.230339
0.228591
0.226976
0.225556
0.224388
0.223529
0.223031
0.222947
0.223321
0.224192
0.225584
0.227492
0.229852
0.232494
0.235044
0.236712
0.23615
0.230152
0.214946
0.209896
0.216284
0.222605
0.225982
0.227211
0.227288
0.226774
0.226062
0.225395
0.224917
0.224708
0.224805
0.22522
0.225945
0.226957
0.228226
0.229712
0.231369
0.233142
0.234975
0.236804
0.238563
0.240177
0.241579
0.242706
0.243505
0.243932
0.243959
0.243573
0.242782
0.241608
0.240092
0.238288
0.236258
0.234072
0.231802
0.229517
0.227283
0.225175
0.223247
0.221548
0.220123
0.219007
0.218223
0.217782
0.217675
0.217867
0.218277
0.218758
0.219053
0.218742
0.21714
0.213168
0.205348
0.195198
0.196205
0.200883
0.206852
0.211105
0.213737
0.215339
0.216312
0.216958
0.217489
0.218055
0.218757
0.219658
0.220796
0.222185
0.223823
0.225695
0.227772
0.230015
0.232375
0.23479
0.237195
0.239501
0.241625
0.24348
0.244988
0.246074
0.246679
0.246765
0.246314
0.245336
0.243863
0.241948
0.239665
0.237096
0.234328
0.231451
0.228543
0.225685
0.222956
0.220405
0.218077
0.216006
0.214209
0.212691
0.211438
0.210412
0.209548
0.208738
0.207823
0.206561
0.204626
0.201594
0.196837
0.189876
0.183401
0.185815
0.189111
0.194117
0.198604
0.201928
0.204399
0.206322
0.207919
0.209361
0.210779
0.212273
0.213916
0.215757
0.217825
0.220132
0.222676
0.225436
0.228383
0.231465
0.234627
0.237775
0.240809
0.243625
0.246109
0.248152
0.249649
0.250516
0.250695
0.250159
0.248923
0.247034
0.244568
0.24163
0.238332
0.234794
0.231126
0.227423
0.223798
0.220322
0.217048
0.214015
0.211249
0.208753
0.206518
0.204513
0.202688
0.200966
0.199239
0.197365
0.195164
0.192403
0.188811
0.184064
0.178279
0.173876
0.176854
0.179313
0.183467
0.18779
0.191336
0.194251
0.196749
0.198984
0.201088
0.203173
0.20533
0.207631
0.210127
0.212859
0.21585
0.21911
0.222637
0.226405
0.230368
0.234449
0.23855
0.242544
0.246294
0.249646
0.252443
0.254532
0.255781
0.256105
0.255459
0.253863
0.25139
0.248158
0.244324
0.240047
0.235493
0.230809
0.226118
0.221563
0.217214
0.213125
0.209331
0.205847
0.202665
0.199762
0.197097
0.19461
0.192222
0.189839
0.187344
0.1846
0.181445
0.177688
0.173161
0.168261
0.165019
0.168526
0.170436
0.173913
0.177939
0.181506
0.184622
0.18744
0.190077
0.19264
0.19522
0.1979
0.20075
0.203833
0.207195
0.210874
0.21489
0.219247
0.223954
0.228948
0.23415
0.239464
0.244722
0.249738
0.2543
0.258174
0.261127
0.262949
0.263498
0.262703
0.260593
0.257284
0.252966
0.247887
0.242284
0.236389
0.230393
0.224492
0.218831
0.213481
0.208499
0.203908
0.199708
0.195878
0.19238
0.189159
0.18615
0.183277
0.180452
0.177578
0.174546
0.171247
0.167532
0.163377
0.15938
0.15692
0.160445
0.161948
0.164855
0.168542
0.172034
0.175213
0.178184
0.181051
0.183906
0.18683
0.189901
0.193187
0.196757
0.200674
0.204994
0.209758
0.215023
0.220767
0.226953
0.233515
0.240344
0.247272
0.254019
0.26029
0.265735
0.269984
0.272686
0.273596
0.272589
0.269715
0.265173
0.259276
0.252431
0.245002
0.237318
0.229651
0.222279
0.215318
0.208852
0.202921
0.197529
0.19265
0.188242
0.184244
0.18059
0.177204
0.174
0.170901
0.167821
0.164679
0.161381
0.157819
0.153984
0.15057
0.148645
0.152395
0.15359
0.156021
0.159345
0.16268
0.165806
0.168799
0.171754
0.174752
0.177871
0.181187
0.184775
0.188717
0.19309
0.197977
0.203451
0.209588
0.216421
0.223943
0.232114
0.240834
0.249936
0.259073
0.267798
0.275592
0.281852
0.285958
0.287467
0.286146
0.282081
0.275633
0.267373
0.257959
0.247982
0.2379
0.228151
0.219
0.210564
0.202904
0.196021
0.189877
0.184409
0.179532
0.17516
0.171211
0.167597
0.16424
0.16105
0.15794
0.154824
0.151623
0.148257
0.144795
0.141923
0.14037
0.144249
0.145206
0.147232
0.150181
0.153275
0.156244
0.15914
0.162048
0.165045
0.168204
0.171604
0.175329
0.179474
0.184142
0.189434
0.195499
0.202421
0.210297
0.219221
0.229206
0.240204
0.25207
0.2645
0.276818
0.288225
0.297727
0.304203
0.306755
0.304936
0.298896
0.289358
0.277419
0.264202
0.25061
0.237387
0.225083
0.213879
0.203865
0.195027
0.187285
0.180521
0.17462
0.169447
0.164907
0.160879
0.157243
0.153899
0.150759
0.147742
0.144768
0.14176
0.138661
0.135587
0.133178
0.131937
0.135924
0.136699
0.138368
0.140913
0.143688
0.14641
0.149098
0.151828
0.154672
0.157704
0.161003
0.164664
0.168792
0.173518
0.178977
0.185354
0.19281
0.201536
0.211719
0.223568
0.237148
0.252423
0.269207
0.286802
0.303916
0.318902
0.329604
0.33411
0.33144
0.321904
0.30708
0.289181
0.270204
0.251578
0.234404
0.21909
0.205718
0.194213
0.184387
0.176023
0.168932
0.162923
0.157781
0.153335
0.14944
0.145971
0.142823
0.139898
0.137118
0.134405
0.131688
0.128923
0.126261
0.124278
0.123302
0.127378
0.127987
0.129326
0.131451
0.133851
0.136237
0.138609
0.141028
0.143565
0.146289
0.149281
0.152634
0.156467
0.160912
0.16618
0.172447
0.179956
0.189024
0.200013
0.213309
0.229378
0.248468
0.270676
0.295738
0.322023
0.346675
0.365493
0.373968
0.369685
0.353425
0.328959
0.301115
0.273411
0.248192
0.226393
0.208014
0.192763
0.180209
0.169948
0.161588
0.154721
0.149028
0.144267
0.140231
0.136743
0.133687
0.13094
0.128397
0.126
0.123671
0.121344
0.118993
0.116782
0.11517
0.114365
0.118626
0.119105
0.120133
0.121803
0.123745
0.125707
0.12766
0.129648
0.131728
0.133962
0.136423
0.139195
0.142389
0.146159
0.150714
0.156251
0.163071
0.17157
0.182284
0.195927
0.213324
0.235543
0.263615
0.298088
0.338601
0.380902
0.416607
0.434
0.426284
0.395618
0.352436
0.307932
0.268073
0.235277
0.209116
0.188604
0.172699
0.160425
0.150871
0.14335
0.137404
0.132615
0.128733
0.125513
0.122776
0.120399
0.11827
0.116303
0.114431
0.112597
0.110752
0.108887
0.107167
0.105961
0.105364
0.109679
0.11004
0.110759
0.111951
0.113389
0.114855
0.116297
0.117737
0.119214
0.120776
0.122477
0.124388
0.126597
0.129255
0.132494
0.136527
0.141639
0.148239
0.156916
0.168541
0.184429
0.206455
0.237413
0.280534
0.339364
0.413302
0.486607
0.526121
0.510326
0.445618
0.364878
0.294622
0.241697
0.203437
0.176295
0.157143
0.143467
0.133572
0.126318
0.120949
0.116897
0.113785
0.111334
0.109322
0.107664
0.106225
0.104919
0.103671
0.102444
0.101211
0.099931
0.0986174
0.0974217
0.0966045
0.0961804
0.100578
0.100822
0.101222
0.101925
0.102831
0.103761
0.10463
0.105434
0.106193
0.106933
0.107685
0.108487
0.109384
0.110469
0.1118
0.113521
0.115796
0.118862
0.123181
0.129385
0.138526
0.152732
0.175637
0.213878
0.279852
0.396662
0.55427
0.65423
0.617468
0.46587
0.315576
0.223826
0.170966
0.140183
0.121834
0.110697
0.103761
0.0992927
0.0965092
0.0947305
0.0935348
0.0928092
0.0923304
0.0919726
0.0916893
0.0914082
0.0910931
0.090715
0.0902518
0.0896858
0.0890142
0.0882719
0.0875973
0.0871695
0.0869223
0.0910691
0.09115
0.0912999
0.0916681
0.0921528
0.0925705
0.0928351
0.09294
0.0928941
0.0927045
0.0923716
0.0918925
0.0912583
0.0904705
0.0894936
0.0882985
0.0868342
0.0850204
0.0827508
0.0798346
0.0759798
0.0710401
0.0643264
0.0548522
0.0415686
0.130018
0.398371
0.243134
0.0800308
0.0205221
0.0294158
0.0378166
0.0447642
0.0505446
0.0554854
0.0595578
0.063049
0.0660186
0.0685536
0.0707222
0.0725555
0.0740898
0.0753514
0.076361
0.0771344
0.077685
0.0780216
0.0781537
0.0781005
0.077918
0.0777431
0.0777057
0.0776925
0.0799859
0.0801804
0.0807452
0.0813549
0.0816507
0.0815538
0.0811561
0.0804981
0.0795949
0.0784415
0.0769838
0.0751693
0.0729332
0.0701779
0.066769
0.0625152
0.0571236
0.0501327
0.0408028
0.027861
0.0089826
-0.0202604
-0.0692312
-0.161034
-0.291248
-0.460634
-0.290567
-0.152064
-0.080934
-0.039457
-0.0128524
0.00549549
0.0188773
0.0290516
0.0370181
0.0433889
0.0485587
0.0527828
0.056237
0.0590922
0.0614273
0.0633164
0.0648351
0.0659861
0.0668194
0.0673682
0.0676673
0.0677565
0.0676936
0.0675846
0.0741037
0.0737807
0.0735206
0.0728652
0.0719988
0.0710499
0.0699539
0.0686181
0.0669569
0.0649166
0.062429
0.0594127
0.0557509
0.0512774
0.0457896
0.038999
0.0304812
0.0196082
0.00542276
-0.0135772
-0.0398078
-0.0773775
-0.134693
-0.223328
-0.308944
-0.347207
-0.240342
-0.156613
-0.102733
-0.0654936
-0.0384933
-0.018258
-0.00267529
0.00958363
0.0193848
0.0273185
0.0338064
0.0391477
0.0435388
0.0471595
0.0501341
0.0525425
0.0544985
0.0560386
0.0571867
0.057937
0.0582527
0.0581318
0.0579024
0.0635334
0.0635633
0.0632367
0.0626432
0.0617668
0.060532
0.0589312
0.0569542
0.054562
0.0516892
0.0482502
0.0441364
0.0392034
0.0332267
0.0259764
0.0171272
0.00623404
-0.00731655
-0.0243745
-0.0460708
-0.0738199
-0.109214
-0.152921
-0.201177
-0.225211
-0.237447
-0.320109
-0.297253
-0.24669
-0.186688
-0.138283
-0.100208
-0.0704919
-0.0471067
-0.0285443
-0.0136369
-0.00154189
0.00835213
0.0165061
0.0232642
0.0288807
0.0335551
0.0374457
0.0406746
0.0433458
0.0455432
0.0473475
0.048831
0.0500325
0.0508573
0.0510322
0.0553297
0.0554574
0.0550644
0.0540837
0.0526566
0.0508896
0.0487777
0.0462647
0.043279
0.0397363
0.0355362
0.0305626
0.024668
0.0176115
0.0091819
-0.000924484
-0.0130725
-0.0277014
-0.0453966
-0.0667325
-0.0921545
-0.122057
-0.156069
-0.186781
-0.199483
-0.20625
-0.217074
-0.234214
-0.259701
-0.279113
-0.283624
-0.276387
-0.241781
-0.194125
-0.152551
-0.118081
-0.0896092
-0.0661114
-0.0468606
-0.030981
-0.0177915
-0.00685714
0.00227269
0.00993166
0.0163597
0.0217668
0.0263184
0.0301487
0.0333707
0.0360817
0.0383546
0.0402113
0.0415861
0.0423641
0.0425383
0.0474923
0.0475926
0.0470944
0.0459037
0.0441654
0.0420131
0.039474
0.0365025
0.0330221
0.028942
0.024157
0.0185486
0.0119746
0.00419671
-0.00497724
-0.0157666
-0.0284448
-0.0433206
-0.0607175
-0.0809224
-0.104133
-0.13029
-0.158138
-0.178621
-0.185581
-0.195392
-0.213566
-0.237452
-0.26268
-0.277394
-0.277459
-0.265258
-0.234432
-0.193506
-0.156798
-0.125837
-0.0996495
-0.0775432
-0.0589034
-0.0431867
-0.029902
-0.0186776
-0.00915863
-0.00104992
0.0058155
0.0116538
0.0166217
0.0208592
0.0244655
0.0275296
0.0301265
0.0322646
0.0338525
0.0347433
0.0348905
0.0399425
0.0400411
0.0394992
0.0381818
0.0362308
0.0338083
0.0309676
0.027671
0.0238426
0.0193908
0.0142129
0.00819589
0.00120482
-0.0069101
-0.0163798
-0.0273481
-0.0400282
-0.0546283
-0.0713471
-0.0903435
-0.111648
-0.13508
-0.158821
-0.17422
-0.179403
-0.189976
-0.210388
-0.235598
-0.257333
-0.265573
-0.260853
-0.245719
-0.217186
-0.182733
-0.151618
-0.125011
-0.102071
-0.0822662
-0.0651921
-0.0504776
-0.0378431
-0.0269661
-0.017619
-0.00957224
-0.00264471
0.00331605
0.00844373
0.0128568
0.0166551
0.0199244
0.022724
0.0250411
0.0267543
0.0276947
0.0278428
0.0329537
0.0330736
0.0325377
0.0311783
0.0291108
0.0265227
0.0234901
0.0199894
0.0159533
0.0112972
0.0059253
-0.000265529
-0.00738832
-0.0155906
-0.025061
-0.0358976
-0.0482787
-0.0623778
-0.0783521
-0.0962986
-0.116357
-0.138497
-0.160622
-0.174336
-0.179415
-0.188918
-0.205858
-0.225481
-0.239497
-0.240014
-0.230124
-0.213813
-0.190502
-0.163994
-0.139387
-0.117652
-0.0984998
-0.0816033
-0.0667173
-0.053636
-0.0421615
-0.0321091
-0.0233247
-0.0156548
-0.00895823
-0.00313759
0.00192659
0.00633762
0.010169
0.0134966
0.0163603
0.0187277
0.020452
0.021372
0.0214904
0.0265849
0.0267221
0.026197
0.0248365
0.0227422
0.0200912
0.0169753
0.0133908
0.00928134
0.00457146
-0.000824312
-0.00700367
-0.0140584
-0.0220973
-0.0313013
-0.041783
-0.0536723
-0.0671376
-0.0823265
-0.0994459
-0.118731
-0.140315
-0.16239
-0.176903
-0.182444
-0.18901
-0.199573
-0.209796
-0.213152
-0.204947
-0.190442
-0.175225
-0.15826
-0.140026
-0.122344
-0.10599
-0.0909296
-0.0772059
-0.0647923
-0.0536198
-0.0436115
-0.0346832
-0.0267449
-0.0197091
-0.0134898
-0.00800255
-0.0031695
0.00108233
0.00481344
0.00807884
0.010899
0.0132196
0.0148827
0.0157306
0.0157933
0.0209014
0.0210773
0.0205915
0.019265
0.0171923
0.0145483
0.0114465
0.00789302
0.00383964
-0.000781419
-0.00604376
-0.0120293
-0.0188228
-0.026521
-0.0352509
-0.0451784
-0.0563921
-0.0690585
-0.0833846
-0.0996165
-0.118061
-0.139039
-0.160954
-0.176946
-0.183629
-0.187534
-0.19162
-0.192273
-0.184926
-0.168591
-0.149922
-0.135813
-0.125158
-0.114407
-0.10316
-0.0918524
-0.0808674
-0.0703297
-0.0604519
-0.0513068
-0.0429064
-0.0352484
-0.0283108
-0.0220584
-0.0164471
-0.0114304
-0.00696108
-0.00299118
0.000526192
0.00363014
0.00632649
0.00854633
0.0101215
0.0109001
0.0109074
0.0159207
0.0161191
0.0156844
0.0144482
0.0124742
0.00993396
0.00694545
0.00353016
-0.000349038
-0.00475008
-0.00973848
-0.0153842
-0.021763
-0.0289512
-0.0370481
-0.0462134
-0.0565599
-0.0682372
-0.0814563
-0.0964729
-0.113663
-0.133375
-0.15453
-0.171481
-0.179721
-0.182163
-0.181337
-0.174975
-0.159658
-0.136778
-0.114607
-0.100935
-0.0949715
-0.0901997
-0.0842348
-0.0772797
-0.0697874
-0.062193
-0.0546879
-0.0474829
-0.0406737
-0.0343089
-0.0284195
-0.0230149
-0.0180897
-0.0136274
-0.00960467
-0.00599349
-0.00276377
0.000108081
0.00261298
0.00466703
0.0060959
0.00675951
0.0067126
0.0116463
0.0118747
0.0115145
0.0103998
0.00858239
0.0062182
0.00342529
0.00023681
-0.0033725
-0.00744858
-0.0120457
-0.0172222
-0.0230423
-0.0295721
-0.0368903
-0.0451152
-0.0543897
-0.0648326
-0.0766253
-0.090018
-0.105356
-0.123012
-0.142265
-0.158929
-0.168643
-0.171115
-0.167917
-0.157455
-0.137944
-0.111536
-0.0872026
-0.0734164
-0.0703528
-0.0695649
-0.0673298
-0.0636702
-0.0590299
-0.0538058
-0.0483792
-0.0428858
-0.0375173
-0.0323672
-0.0274943
-0.0229385
-0.0187198
-0.0148439
-0.0113069
-0.00809769
-0.00520122
-0.00260876
-0.000343794
0.0014988
0.00275396
0.00330278
0.00319827
0.00806754
0.00832515
0.00804463
0.00707678
0.00545987
0.00333044
0.000801205
-0.00208718
-0.00534753
-0.00901328
-0.013126
-0.0177316
-0.0228801
-0.0286287
-0.0350414
-0.0421927
-0.0501826
-0.0591375
-0.069197
-0.0805519
-0.0934709
-0.108236
-0.124449
-0.139437
-0.149907
-0.15375
-0.150364
-0.138691
-0.118949
-0.0929931
-0.0681273
-0.053618
-0.051909
-0.053461
-0.0534441
-0.0519057
-0.0492931
-0.0459435
-0.0421056
-0.0380567
-0.0339219
-0.0298499
-0.0259074
-0.0221486
-0.01861
-0.0153133
-0.0122683
-0.0094762
-0.00693377
-0.00464432
-0.00264318
-0.00102995
4.19663e-05
0.000471889
0.000315615
0.00515103
0.00543585
0.00524464
0.0044375
0.00305303
0.00120166
-0.00101248
-0.00354437
-0.00639534
-0.00958777
-0.0131509
-0.0171172
-0.0215187
-0.0263929
-0.0317802
-0.0377314
-0.0443111
-0.0516185
-0.0597305
-0.0687511
-0.0788436
-0.0901948
-0.102662
-0.114844
-0.124942
-0.130375
-0.128683
-0.118393
-0.100726
-0.0778129
-0.0550237
-0.040673
-0.0391563
-0.0416522
-0.04269
-0.0423448
-0.0409876
-0.038915
-0.0363002
-0.0333438
-0.0302289
-0.0270536
-0.0239195
-0.0208756
-0.017964
-0.0152146
-0.0126452
-0.0102658
-0.00808091
-0.00610269
-0.00437421
-0.00299569
-0.00210884
-0.00179546
-0.00199631
0.00284899
0.00315363
0.00305475
0.00243369
0.00129887
-0.000249069
-0.002115
-0.0042527
-0.00665582
-0.0093339
-0.0123039
-0.0155817
-0.0191873
-0.023141
-0.0274653
-0.0321826
-0.0373124
-0.0428722
-0.0489206
-0.0554898
-0.0626282
-0.0704322
-0.0789379
-0.087674
-0.0963111
-0.102764
-0.103429
-0.0962307
-0.0821478
-0.0634437
-0.0444244
-0.0317216
-0.0305474
-0.033324
-0.0346874
-0.0348441
-0.0341629
-0.0328561
-0.0310853
-0.0289564
-0.0266184
-0.0241768
-0.0217167
-0.0192912
-0.0169381
-0.0146885
-0.0125641
-0.0105784
-0.00874153
-0.0070708
-0.00561429
-0.00446753
-0.00376127
-0.00355631
-0.00379787
0.00111549
0.00143291
0.00141742
0.000974363
0.000101592
-0.00112309
-0.00262073
-0.00434382
-0.00627847
-0.00842545
-0.0107897
-0.0133765
-0.0161892
-0.0192271
-0.0224857
-0.0259573
-0.0296325
-0.0334986
-0.0375329
-0.0417245
-0.0460448
-0.0505121
-0.0553055
-0.0606444
-0.0673828
-0.0740011
-0.0764489
-0.0727579
-0.0629236
-0.0490275
-0.0347195
-0.0252898
-0.0249518
-0.0276164
-0.0288586
-0.0290672
-0.0286473
-0.0277605
-0.0265033
-0.0249613
-0.0232047
-0.0213437
-0.0194323
-0.0175265
-0.0156582
-0.0138537
-0.0121343
-0.0105148
-0.00900758
-0.00763357
-0.00644183
-0.00552434
-0.00498835
-0.00488327
-0.00515817
-0.000106691
0.000222952
0.000286825
9.30351e-06
-0.000614657
-0.00151777
-0.00264448
-0.0039533
-0.00542411
-0.00704887
-0.00882167
-0.0107336
-0.0127726
-0.0149219
-0.0171593
-0.0194558
-0.0217721
-0.0240615
-0.0262665
-0.0283132
-0.0301387
-0.0317278
-0.0333691
-0.0357203
-0.0405056
-0.0470541
-0.0510551
-0.0502454
-0.0444126
-0.0354698
-0.026114
-0.0206081
-0.0213804
-0.0236809
-0.0245477
-0.0245602
-0.0241504
-0.0234458
-0.0224952
-0.0213409
-0.0200275
-0.0186052
-0.0171395
-0.0156652
-0.0142126
-0.0127997
-0.0114441
-0.0101599
-0.00896015
-0.00786683
-0.0069283
-0.00622651
-0.00585213
-0.00583654
-0.00613745
-0.000876628
-0.000548006
-0.000417325
-0.000535731
-0.000914049
-0.00151616
-0.00229223
-0.00320512
-0.00423284
-0.00535974
-0.00657107
-0.00784828
-0.00916831
-0.0105016
-0.0118107
-0.0130479
-0.0141548
-0.0150604
-0.0156819
-0.0159267
-0.0157027
-0.0149949
-0.0142069
-0.014317
-0.0176015
-0.0237315
-0.0289104
-0.0306852
-0.0286673
-0.0241901
-0.0194062
-0.0172781
-0.0189343
-0.0207197
-0.0210975
-0.0208191
-0.0203103
-0.0196652
-0.0188981
-0.0180122
-0.0170262
-0.0159646
-0.0148633
-0.0137538
-0.0126562
-0.0115867
-0.010557
-0.00957839
-0.00866334
-0.00783418
-0.00713494
-0.00663762
-0.00641055
-0.00647225
-0.00679189
-0.00126618
-0.000933142
-0.000746412
-0.000731407
-0.000896078
-0.00121916
-0.00166772
-0.00221229
-0.00282961
-0.00349955
-0.00420059
-0.00490675
-0.00558615
-0.00619987
-0.00669983
-0.00702745
-0.00711252
-0.00687277
-0.00621288
-0.00502808
-0.00322754
-0.000848476
0.00171221
0.00321639
0.00101885
-0.00509686
-0.0113152
-0.0151902
-0.0163798
-0.0156645
-0.0144963
-0.014892
-0.0168766
-0.0180282
-0.0179247
-0.0173891
-0.0167892
-0.0161796
-0.0155486
-0.0148768
-0.0141558
-0.0133917
-0.0126007
-0.011807
-0.0110226
-0.0102565
-0.00951967
-0.00882007
-0.0081688
-0.00758629
-0.00711222
-0.00680191
-0.00670929
-0.00684116
-0.00717298
-0.00133928
-0.00100905
-0.000780581
-0.000648177
-0.000623899
-0.000700748
-0.00085889
-0.00107433
-0.00132693
-0.00159342
-0.00184771
-0.00205881
-0.00218952
-0.00219542
-0.00202352
-0.00161044
-0.000882049
0.000247341
0.00187487
0.00410457
0.00701996
0.0105622
0.0141506
0.0166408
0.0150924
0.00905188
0.0018694
-0.00390146
-0.00760013
-0.00965519
-0.0110027
-0.0126921
-0.01449
-0.0150271
-0.0145868
-0.0139234
-0.0133186
-0.0127896
-0.0123051
-0.0118353
-0.0113566
-0.0108591
-0.010346
-0.0098323
-0.00933026
-0.0088399
-0.00836861
-0.00792516
-0.00751911
-0.00716842
-0.00690487
-0.00676936
-0.00679398
-0.00698181
-0.00731948
-0.00116036
-0.000837619
-0.000571897
-0.000344965
-0.000167984
-3.40483e-05
5.85028e-05
0.000124392
0.000184008
0.000260769
0.000383075
0.000584149
0.000903102
0.00138589
0.0020864
0.00306711
0.00440023
0.00616819
0.00846254
0.0113794
0.0149869
0.0192072
0.0235568
0.026581
0.0252099
0.0188832
0.010895
0.00380723
-0.00160286
-0.00538307
-0.00799369
-0.0100517
-0.0113183
-0.0113841
-0.0108238
-0.0102114
-0.00972841
-0.00936132
-0.00906905
-0.00881899
-0.00858231
-0.0083412
-0.00809094
-0.0078357
-0.00759206
-0.00735773
-0.00713261
-0.00692654
-0.00674896
-0.00661498
-0.00654752
-0.00657186
-0.00670342
-0.00693575
-0.00727706
-0.000789723
-0.000474834
-0.000186416
0.000116813
0.000420182
0.000721222
0.00101837
0.00131728
0.00163405
0.00199151
0.00241772
0.00294607
0.00361493
0.00446862
0.00555806
0.00694137
0.00868396
0.0108598
0.0135496
0.0168366
0.020777
0.0252831
0.0298159
0.0330162
0.0317158
0.0252744
0.0168144
0.00888939
0.00258337
-0.00191001
-0.0048279
-0.00648707
-0.00717528
-0.00701816
-0.00657335
-0.00619229
-0.00595895
-0.00584204
-0.00579922
-0.00579785
-0.00581395
-0.00583005
-0.00583409
-0.0058286
-0.00582469
-0.00582973
-0.00583492
-0.00585025
-0.00588569
-0.00595497
-0.00606955
-0.00624152
-0.00646689
-0.00673815
-0.00707675
-0.000281812
2.46527e-05
0.000334972
0.00068535
0.0010839
0.0015163
0.00197313
0.00245537
0.00297412
0.00354991
0.00420906
0.00498256
0.00590637
0.00702079
0.00837102
0.0100078
0.0119873
0.0143712
0.0172261
0.0206198
0.0245906
0.0290413
0.0335246
0.0367142
0.0354227
0.0289221
0.0203651
0.0123289
0.00596729
0.00158269
-0.000881638
-0.00189758
-0.00216822
-0.00206411
-0.00193631
-0.00193036
-0.0020467
-0.00225129
-0.00250504
-0.00278165
-0.00306308
-0.0033369
-0.00359097
-0.0038257
-0.00404829
-0.0042759
-0.00449892
-0.00472125
-0.00495436
-0.00520333
-0.00547418
-0.00576256
-0.00606126
-0.00636606
-0.0067047
0.000317515
0.000612068
0.000929
0.00131684
0.00178183
0.00230893
0.00288501
0.00350357
0.00417241
0.0049081
0.00573419
0.00667825
0.00777154
0.00904892
0.0105485
0.0123119
0.0143841
0.0168136
0.0196513
0.022948
0.0267326
0.0309229
0.035146
0.0381077
0.0368214
0.0307324
0.0226488
0.0150844
0.00924829
0.00552047
0.00390356
0.00352473
0.00338775
0.00321526
0.0028883
0.00243636
0.00190505
0.00133727
0.000759398
0.000189117
-0.000363449
-0.000890766
-0.00138667
-0.0018514
-0.0022909
-0.00272306
-0.00314929
-0.00356489
-0.00398437
-0.00441274
-0.00484047
-0.00525152
-0.00561681
-0.00593872
-0.00625563
0.000953301
0.00123788
0.00155692
0.00196781
0.00247318
0.00306632
0.00372447
0.00443823
0.00521075
0.00605494
0.00698988
0.00803934
0.00922913
0.0105876
0.012145
0.0139332
0.0159858
0.018338
0.0210271
0.0240881
0.0275362
0.0313086
0.0351115
0.037865
0.0368272
0.0313911
0.0241664
0.0175117
0.0126851
0.0100926
0.00960875
0.00928131
0.00909811
0.00850909
0.00767204
0.00673037
0.00576865
0.00482549
0.00391846
0.00305519
0.00223837
0.00146742
0.000743594
6.40346e-05
-0.000576265
-0.00119027
-0.0017992
-0.00240031
-0.00298652
-0.00356482
-0.00412125
-0.00462126
-0.00504473
-0.00538203
-0.00569225
0.00159076
0.00186424
0.0021829
0.00260239
0.00313358
0.00376467
0.00447398
0.00524828
0.00608535
0.00699422
0.00798997
0.00909157
0.0103191
0.0116943
0.0132394
0.0149769
0.0169303
0.0191234
0.0215774
0.0243107
0.0273297
0.0306055
0.033976
0.0365023
0.0357976
0.031358
0.0254359
0.0201908
0.0166405
0.0150029
0.0146966
0.0147174
0.0146155
0.0135031
0.0121934
0.010784
0.00941131
0.00811107
0.00689247
0.00575282
0.00468837
0.00369322
0.00276132
0.00188693
0.00106459
0.000277327
-0.00048772
-0.00124747
-0.0019822
-0.00269389
-0.00335889
-0.00394181
-0.00440305
-0.00475052
-0.00504987
0.00220235
0.00246346
0.00277723
0.00319776
0.00373773
0.00438804
0.00512486
0.00593085
0.00680097
0.00773995
0.00875862
0.00987109
0.0110922
0.012437
0.0139204
0.0155579
0.0173628
0.0193464
0.0215173
0.0238839
0.0264518
0.0292185
0.0321184
0.034451
0.034266
0.0310939
0.026755
0.0230299
0.0207542
0.0199701
0.0201014
0.0200537
0.0190426
0.0178755
0.0163128
0.0144455
0.0127113
0.0110979
0.00960322
0.00821907
0.0069359
0.00574256
0.0046286
0.00358507
0.00260333
0.00166857
0.000764712
-0.000124357
-0.000990482
-0.00181215
-0.00256654
-0.00320683
-0.00369755
-0.00405117
-0.00433361
0.00276759
0.00301529
0.00331956
0.00373395
0.00427137
0.00492444
0.00567063
0.00648743
0.0073669
0.0083101
0.00932395
0.0104178
0.0116017
0.0128851
0.0142775
0.0157859
0.0174152
0.0191686
0.0210471
0.0230483
0.0251729
0.027447
0.0299058
0.0321031
0.0325311
0.030696
0.027949
0.0256395
0.0244439
0.0243448
0.0246939
0.0245276
0.0233967
0.0215427
0.0194688
0.0175672
0.0155707
0.0137086
0.011988
0.0104018
0.00893639
0.00757815
0.00631303
0.00512873
0.00401352
0.00295661
0.00193785
0.000948855
-1.53217e-05
-0.000931475
-0.00175365
-0.0024352
-0.00294657
-0.00329758
-0.00356489
0.00325633
0.0034938
0.00378784
0.00419033
0.00471937
0.00536732
0.00610847
0.00692239
0.00779569
0.00872583
0.00971646
0.0107728
0.0119011
0.0131065
0.014392
0.0157591
0.0172079
0.0187349
0.0203319
0.021989
0.0237078
0.0255388
0.0275932
0.0296647
0.030628
0.0299817
0.0286121
0.0275909
0.0273583
0.0278056
0.0283464
0.0280668
0.0266824
0.0246492
0.0223337
0.0200068
0.0178396
0.0158753
0.0140001
0.0122612
0.0106556
0.00916942
0.00778724
0.00649442
0.00527695
0.00412337
0.003017
0.00194371
0.000916713
-6.60373e-05
-0.000934651
-0.0016448
-0.00216025
-0.00250871
-0.00276081
0.00365963
0.00388432
0.00416666
0.00455708
0.00507437
0.00570944
0.00644237
0.00724541
0.00810284
0.00900955
0.00996584
0.010975
0.012039
0.0131588
0.0143342
0.0155633
0.0168405
0.0181566
0.0194987
0.0208524
0.0222185
0.0236598
0.0253361
0.0272187
0.028544
0.0288169
0.0286077
0.0286009
0.0291741
0.0301768
0.0309509
0.0306482
0.0291038
0.0268616
0.0243813
0.0219502
0.0196567
0.0175145
0.0155401
0.0137572
0.0120687
0.0104967
0.00903393
0.0076658
0.00637736
0.00515584
0.00398832
0.0028615
0.00178491
0.00077818
-0.000123526
-0.000842606
-0.00136111
-0.00169799
-0.00193664
0.00398308
0.00419569
0.00446551
0.00484042
0.00534145
0.00596371
0.0066821
0.00746891
0.00830476
0.00918262
0.0101006
0.0110582
0.0120555
0.0130914
0.0141631
0.0152646
0.0163873
0.017519
0.0186433
0.0197424
0.0208149
0.0219234
0.0232445
0.0248634
0.0263337
0.0272341
0.0278508
0.0286953
0.0299395
0.0313861
0.0324185
0.0322047
0.0306448
0.0283328
0.0257543
0.0232267
0.0208737
0.0187131
0.0167148
0.0148451
0.0131336
0.0115468
0.010043
0.00863371
0.00730424
0.00604392
0.0048411
0.00368708
0.00258406
0.00157658
0.000671727
-4.86545e-05
-0.000557086
-0.000885936
-0.00110742
0.00423544
0.004437
0.00469414
0.00505004
0.0055333
0.00613914
0.00683935
0.00760673
0.0084195
0.00926662
0.0101445
0.0110515
0.0119862
0.0129453
0.0139236
0.0149138
0.0159056
0.0168845
0.0178324
0.0187296
0.0195706
0.0204085
0.0214057
0.0227102
0.0241234
0.0253523
0.0265308
0.0279732
0.0297681
0.031638
0.0329061
0.0328136
0.0313237
0.0290516
0.0264927
0.0239623
0.0215934
0.0194187
0.0174322
0.0156069
0.0138948
0.0122781
0.010795
0.00940917
0.00806153
0.00678186
0.00557134
0.00441382
0.00331437
0.00230577
0.00143426
0.000725053
0.000228346
-8.32674e-05
-0.000292944
0.00442576
0.00461383
0.00485633
0.00519538
0.00565747
0.00624082
0.00692497
0.00767165
0.00846058
0.00927814
0.0101187
0.0109798
0.0118582
0.0127499
0.0136491
0.0145474
0.0154338
0.0162931
0.017107
0.0178549
0.0185276
0.0191614
0.0198855
0.0208635
0.022079
0.0233901
0.0248656
0.0266809
0.0288507
0.0310448
0.0325539
0.0326109
0.0312388
0.0290776
0.0266236
0.0241792
0.0218755
0.019746
0.0177906
0.0159997
0.0143463
0.0127969
0.0113201
0.00991672
0.0085901
0.00735335
0.00617485
0.00503985
0.00396035
0.00297505
0.00211809
0.00145206
0.000986423
0.000685786
0.00048888
0.00454422
0.00472337
0.00495162
0.00527196
0.00571586
0.00628271
0.00694709
0.00767611
0.00844286
0.00923346
0.0100406
0.0108608
0.0116909
0.0125266
0.0133617
0.014188
0.0149944
0.0157667
0.016487
0.0171355
0.0176988
0.0181953
0.0187134
0.0193934
0.0203305
0.0215357
0.0230618
0.0250746
0.027479
0.0298717
0.0315339
0.0317313
0.0305068
0.0285061
0.0262175
0.0239237
0.0217469
0.0197227
0.0178511
0.01612
0.0145165
0.0130245
0.0116253
0.0102978
0.00903049
0.00781012
0.00664359
0.0055293
0.00439074
0.00358371
0.00276725
0.00213644
0.00169422
0.00140892
0.00122337
0.00461566
0.00478238
0.00499708
0.00530191
0.00572685
0.0062771
0.00692348
0.00763371
0.00837994
0.00914563
0.00992306
0.0107084
0.0114986
0.0122893
0.013075
0.0138479
0.014598
0.0153126
0.0159755
0.0165684
0.0170756
0.0174981
0.0178814
0.0183252
0.0189654
0.0199448
0.0213837
0.0233651
0.0258262
0.0283279
0.0300775
0.0303671
0.029273
0.0274513
0.0253674
0.0232689
0.021264
0.0193865
0.017635
0.0160037
0.0144821
0.0130582
0.0117202
0.0104548
0.00925494
0.00811413
0.00702019
0.00597977
0.00503473
0.00413875
0.00310616
0.00274881
0.00237689
0.00207188
0.00189156
0.00465445
0.00481006
0.00501327
0.00529886
0.00570486
0.00623278
0.00686012
0.00755164
0.00827811
0.00902162
0.00977364
0.0105301
0.0112882
0.0120443
0.0127937
0.0135297
0.014244
0.0149257
0.0155614
0.016135
0.0166292
0.0170319
0.0173503
0.0176372
0.0180226
0.0187206
0.0199313
0.0217734
0.0241349
0.0265651
0.0283003
0.0286356
0.0276645
0.0260306
0.0241712
0.0222953
0.0204937
0.018788
0.017183
0.0156759
0.0142608
0.0129297
0.0116739
0.0104831
0.00934978
0.00827022
0.00724161
0.00626431
0.00535042
0.00454979
0.00393629
0.0034391
0.0029795
0.00257956
0.00247851