/*--------------------------------*- C++ -*----------------------------------*\
  =========                 |
  \\      /  F ield         | OpenFOAM: The Open Source CFD Toolbox
   \\    /   O peration     | Website:  https://openfoam.org
    \\  /    A nd           | Version:  7
     \\/     M anipulation  |
\*---------------------------------------------------------------------------*/
FoamFile
{
    version     2.0;
    format      ascii;
    class       surfaceScalarField;
    location    "55";
    object      phi;
}
// * * * * * * * * * * * * * * * * * * * * * * * * * * * * * * * * * * * * * //

dimensions      [0 3 -1 0 0 0 0];

internalField   nonuniform List<scalar> 
34768
(
8.1919e-05
0.000970009
-0.000149633
-4.45825e-05
2.59263e-05
0.000920952
-1.584e-05
1.08711e-05
0.000907465
-8.27359e-06
6.72418e-06
0.000904247
-5.34803e-06
4.61442e-06
0.000903531
-4.28988e-06
3.90945e-06
0.000903179
-3.62299e-06
3.51117e-06
0.000903111
-3.44778e-06
3.42936e-06
0.000903118
-3.13769e-06
3.07635e-06
0.000903262
-3.23012e-06
3.00646e-06
0.000903325
-3.09106e-06
2.99383e-06
0.0009033
-3.00039e-06
3.22269e-06
0.000903281
-3.04589e-06
2.98336e-06
0.000903567
-3.21957e-06
3.16934e-06
0.000903555
-3.2164e-06
3.37666e-06
0.000903546
-3.3329e-06
3.3023e-06
0.000903838
-3.56687e-06
3.54461e-06
0.00090373
-3.51665e-06
3.70204e-06
0.000903824
-3.68122e-06
3.67384e-06
0.000903918
-3.85958e-06
3.75893e-06
0.000904112
-4.15104e-06
4.75673e-06
0.000904107
-5.55459e-06
6.36606e-06
0.000905202
-5.21948e-06
4.37632e-06
0.000904878
-3.61447e-06
4.08582e-06
0.000904615
-5.34779e-06
-3.56847e-07
0.000909292
-7.09283e-07
1.28719e-06
0.00090864
-1.18535e-06
8.44961e-07
0.00090945
-5.46427e-07
-6.80708e-10
0.000909658
5.63346e-07
-8.45397e-07
0.000909392
1.20615e-06
-1.3177e-06
0.000909223
1.35009e-06
-1.39417e-06
0.000909166
1.3993e-06
-1.37695e-06
0.00090909
1.36557e-06
-1.34759e-06
0.000909094
1.2906e-06
-1.27781e-06
0.000909109
1.27576e-06
-1.26876e-06
0.000909115
1.27233e-06
-1.27172e-06
0.000909121
1.2813e-06
-1.28753e-06
0.000909128
1.30368e-06
-1.41723e-06
0.000909235
1.74027e-06
-1.16183e-06
0.000909942
6.92832e-07
-5.22944e-07
0.00091035
4.61805e-07
-4.00711e-07
0.000910358
4.48276e-07
-4.9706e-07
0.000910267
5.54627e-07
-6.14911e-07
0.000910278
6.8458e-07
-6.5887e-07
0.000910091
7.43714e-07
-8.35812e-07
0.000910108
9.4061e-07
-1.05636e-06
0.000910031
1.18846e-06
-1.33711e-06
0.000909963
1.50827e-06
-1.7048e-06
0.00091001
1.93429e-06
-2.30372e-06
0.000910082
2.52444e-06
-2.91011e-06
0.000910098
3.37911e-06
-4.05539e-06
0.000910288
4.66585e-06
-5.53713e-06
0.000910482
6.56091e-06
-7.6737e-06
0.000910623
8.70179e-06
-6.59929e-06
0.000907406
-4.12442e-06
-2.68626e-05
0.000940493
-0.000827674
0.000143779
0.000703736
-1.98826e-05
-0.000972514
-0.000148725
0.000116907
0.00100428
-0.000925005
-9.0263e-05
7.08819e-05
0.000944337
-0.000911532
-5.68084e-05
4.63751e-05
0.000921918
-0.00090713
-3.84511e-05
3.24464e-05
0.000913089
-0.000905411
-2.7789e-05
2.40782e-05
0.000909077
-0.000904463
-2.06058e-05
1.84617e-05
0.000906565
-0.000903932
-1.62539e-05
1.44583e-05
0.000905688
-0.000903805
-1.2842e-05
1.16235e-05
0.000904986
-0.000903689
-1.05943e-05
9.59734e-06
0.000904651
-0.000903738
-8.63554e-06
8.06783e-06
0.000904273
-0.000903626
-7.30025e-06
6.70312e-06
0.000904194
-0.00090354
-6.28362e-06
5.72018e-06
0.000904077
-0.000903771
-5.21774e-06
4.96318e-06
0.000904003
-0.000903713
-4.65805e-06
4.2962e-06
0.000904056
-0.000903663
-4.27433e-06
3.99391e-06
0.000903929
-0.000903818
-3.74592e-06
3.63972e-06
0.000903916
-0.000903778
-3.65868e-06
3.5208e-06
0.000903914
-0.000903841
-3.50177e-06
3.42844e-06
0.00090392
-0.000903907
-3.5668e-06
3.65381e-06
0.000903833
-0.000904176
-3.44577e-06
3.58968e-06
0.000904055
-0.000903949
-3.93046e-06
3.32656e-06
0.000904584
-0.000907004
-3.49207e-06
6.44527e-06
0.000904092
-0.000903346
-5.32759e-06
-1.35811e-07
0.000908861
-0.000907869
-1.07065e-06
1.21914e-06
0.000907783
-0.000908341
-1.17751e-06
1.27016e-06
0.00090832
-0.000909628
-1.30296e-06
1.69066e-06
0.000909322
-0.000910126
-1.84458e-06
1.57669e-06
0.000910485
-0.000909561
-1.23407e-06
1.43488e-06
0.00090946
-0.000909374
-1.65422e-06
1.3384e-06
0.000909797
-0.000909165
-1.19442e-06
1.29379e-06
0.00090918
-0.000909041
-1.39686e-06
1.58224e-06
0.000908976
-0.000909061
-1.66497e-06
1.80909e-06
0.000909043
-0.000909115
-1.89463e-06
1.99046e-06
0.00090915
-0.000909152
-1.87342e-06
2.01568e-06
0.000909144
-0.000909192
-1.94129e-06
1.92505e-06
0.000909345
-0.000909233
-1.78979e-06
1.71128e-06
0.000909451
-0.000909677
-1.4117e-06
1.16725e-06
0.000910061
-0.000909923
-4.00611e-07
8.58732e-08
0.000910378
-0.000910272
-4.65126e-08
-4.41877e-08
0.000910503
-0.000910524
1.6118e-07
-3.34319e-07
0.000910837
-0.000910583
7.36916e-07
-1.10267e-06
0.000911086
-0.00091055
1.60265e-06
-2.07581e-06
0.000911159
-0.000910533
2.69156e-06
-3.39522e-06
0.000911369
-0.000910538
4.15449e-06
-5.02305e-06
0.000911536
-0.000910578
5.96855e-06
-7.1553e-06
0.000911891
-0.000910773
8.35288e-06
-9.74025e-06
0.000912284
-0.000910958
1.12943e-05
-1.32153e-05
0.000912998
-0.000911392
1.5296e-05
-1.77704e-05
0.000913982
-0.000911987
2.06655e-05
-2.42763e-05
0.000915709
-0.000913151
2.86003e-05
-3.38489e-05
0.000918508
-0.000915174
4.04837e-05
-4.87698e-05
0.000923564
-0.00091894
5.98329e-05
-7.41419e-05
0.000933346
-0.000924689
9.38383e-05
-0.000124178
0.000955107
-0.000978553
0.000165365
-0.000143423
0.000956664
-0.000599633
8.48749e-05
0.000518887
-4.17659e-06
-0.00102179
-0.000134294
0.000131665
0.00102437
-0.000962619
-0.000111899
9.36624e-05
0.000980808
-0.000933051
-7.96372e-05
6.83467e-05
0.000944293
-0.000920266
-5.91589e-05
5.14579e-05
0.00092792
-0.000913995
-4.48907e-05
3.94921e-05
0.000919347
-0.000910414
-3.48238e-05
3.08007e-05
0.000914392
-0.000907892
-2.73496e-05
2.37331e-05
0.000911465
-0.000906867
-2.12249e-05
1.90219e-05
0.000909028
-0.000905998
-1.69086e-05
1.5014e-05
0.000907852
-0.000905505
-1.33373e-05
1.18227e-05
0.000906982
-0.000904987
-1.0677e-05
9.35555e-06
0.000906273
-0.000904883
-8.16856e-06
7.38376e-06
0.000905635
-0.000904554
-6.30829e-06
5.51946e-06
0.000905313
-0.000904376
-4.92405e-06
4.30571e-06
0.000904969
-0.000904333
-3.66712e-06
3.30106e-06
0.000904678
-0.000904015
-2.90494e-06
2.57932e-06
0.000904325
-0.000904015
-2.21444e-06
2.02006e-06
0.0009042
-0.00090393
-1.87881e-06
1.9094e-06
0.000903898
-0.000903959
-1.58449e-06
1.63324e-06
0.000903916
-0.000903701
-1.91858e-06
1.3799e-06
0.000904254
-0.000904756
-1.06965e-06
2.23522e-06
0.000903614
-0.000906043
-1.92363e-07
-1.36639e-06
0.000907636
-0.000907923
8.41973e-07
-4.07149e-07
0.000907531
-0.0009078
-1.89326e-07
3.00425e-07
0.000907743
-0.000908076
-4.00189e-07
4.83627e-07
0.000908056
-0.000908651
-8.50305e-07
1.37531e-06
0.000908199
-0.000910695
-1.92222e-06
1.86973e-06
0.00091083
-0.000909261
-1.7454e-06
2.06553e-06
0.000909033
-0.00090996
-2.4424e-06
2.74299e-06
0.000909759
-0.000909005
-2.73793e-06
2.95981e-06
0.00090889
-0.000908765
-3.25285e-06
3.6079e-06
0.000908522
-0.000908887
-3.8439e-06
4.11741e-06
0.000908732
-0.000908978
-4.3125e-06
4.391e-06
0.000909022
-0.000909254
-4.53394e-06
4.60693e-06
0.000909308
-0.000909443
-4.53854e-06
4.49715e-06
0.000909614
-0.000909643
-4.31025e-06
4.04775e-06
0.000910037
-0.000910851
-3.23663e-06
1.94737e-06
0.000912274
-0.000910672
-1.90373e-06
1.87754e-06
0.000910832
-0.000910808
-1.39603e-06
9.26666e-07
0.000911411
-0.000911262
-3.97917e-07
-2.26519e-07
0.000912019
-0.000911645
9.16547e-07
-1.71296e-06
0.000912572
-0.000911972
2.68453e-06
-3.67776e-06
0.000913095
-0.000912368
4.86105e-06
-6.08855e-06
0.000913722
-0.000912868
7.62929e-06
-9.14656e-06
0.000914509
-0.000913426
1.09115e-05
-1.29021e-05
0.000915538
-0.000914334
1.50936e-05
-1.75828e-05
0.00091694
-0.000915536
2.04564e-05
-2.35348e-05
0.000918728
-0.000917491
2.72295e-05
-3.12979e-05
0.000921669
-0.000920462
3.61898e-05
-4.18259e-05
0.000926204
-0.000925535
4.85195e-05
-5.63885e-05
0.000933505
-0.000934251
6.57489e-05
-7.70742e-05
0.000945673
-0.000950295
9.08999e-05
-0.000108004
0.000967489
-0.000985866
0.000130115
-0.000154662
0.00101049
-0.000907045
0.000157521
-9.16356e-05
0.000841214
-0.000458278
4.89385e-05
0.000412106
-2.81902e-06
-0.00101368
-0.000100655
0.000120263
0.000994016
-0.000997318
-0.000114417
0.000100926
0.00101076
-0.000955346
-8.81778e-05
7.76016e-05
0.000965874
-0.000935853
-6.85684e-05
6.08276e-05
0.000943545
-0.000925154
-5.40834e-05
4.81289e-05
0.00093106
-0.000918796
-4.28894e-05
3.82197e-05
0.000923418
-0.000914762
-3.40838e-05
3.03692e-05
0.000918429
-0.000912095
-2.71637e-05
2.41732e-05
0.000915039
-0.000909865
-2.13983e-05
1.84624e-05
0.000912755
-0.000908675
-1.64852e-05
1.43952e-05
0.000910722
-0.000907735
-1.24087e-05
1.08779e-05
0.000909223
-0.000906825
-9.3165e-06
7.88404e-06
0.000908218
-0.000906173
-6.59718e-06
5.42315e-06
0.00090731
-0.000905828
-4.27689e-06
3.43411e-06
0.000906638
-0.000905155
-2.70585e-06
1.97483e-06
0.000905857
-0.000904834
-1.24776e-06
6.15906e-07
0.000905443
-0.00090445
-2.79425e-07
-6.19373e-08
0.000904775
-0.000904197
4.15905e-07
-6.72964e-07
0.000904445
-0.000903772
5.50689e-07
-1.22993e-06
0.000904449
-0.000904471
1.53525e-06
-5.42566e-07
0.000903486
-0.000905714
2.70126e-06
-4.32598e-06
0.000907355
-0.000907074
3.82604e-06
-3.63353e-06
0.000906908
-0.000906976
3.06531e-06
-2.54344e-06
0.00090649
-0.000907148
2.1142e-06
-1.27377e-06
0.000906353
-0.000908339
5.83426e-07
-4.80847e-07
0.000908292
-0.000907358
-2.19988e-07
9.9302e-07
0.00090665
-0.000910601
-1.58679e-06
2.00567e-06
0.000910256
-0.00090854
-2.17572e-06
2.79745e-06
0.000908001
-0.000908785
-3.56485e-06
4.4209e-06
0.000908019
-0.000908968
-4.39813e-06
4.75091e-06
0.000908714
-0.000908121
-5.24167e-06
5.79906e-06
0.000907668
-0.000908428
-6.23116e-06
6.67175e-06
0.000908097
-0.000908851
-6.88452e-06
7.26851e-06
0.000908582
-0.000909273
-7.39495e-06
7.5175e-06
0.000909269
-0.000909725
-7.47504e-06
7.52432e-06
0.000909796
-0.000910301
-7.20331e-06
6.77087e-06
0.000910856
-0.000913397
-5.76474e-06
5.34344e-06
0.000913942
-0.000911324
-4.74407e-06
4.1258e-06
0.000912067
-0.000912078
-3.42697e-06
2.70392e-06
0.000912926
-0.000912774
-1.79607e-06
7.55915e-07
0.000913938
-0.000913633
3.75507e-07
-1.44944e-06
0.000914829
-0.000914387
2.8258e-06
-4.2616e-06
0.000915943
-0.000915387
6.01612e-06
-7.65259e-06
0.000917142
-0.000916505
9.73274e-06
-1.18293e-05
0.000918717
-0.00091785
1.42036e-05
-1.68441e-05
0.000920603
-0.000919696
1.97137e-05
-2.29167e-05
0.000923008
-0.000922419
2.64243e-05
-3.0361e-05
0.000926461
-0.000926374
3.47092e-05
-3.96209e-05
0.000931388
-0.000932341
4.51986e-05
-5.13228e-05
0.000938563
-0.000941597
5.84332e-05
-6.64539e-05
0.000949712
-0.000956866
7.56587e-05
-8.5953e-05
0.00096725
-0.00098333
9.74417e-05
-0.000111598
0.000997569
-0.00102545
0.000126465
-0.000130657
0.00102971
-0.000772242
0.000102244
-3.9353e-05
0.000709408
-0.000376328
2.96261e-05
0.000348301
-1.65964e-06
-0.000969217
-7.17523e-05
9.92645e-05
0.000941647
-0.00102112
-0.000104767
9.79511e-05
0.00102789
-0.00097571
-8.81437e-05
7.86818e-05
0.000985122
-0.000950934
-7.05356e-05
6.33953e-05
0.000958024
-0.00093703
-5.69897e-05
5.12541e-05
0.000942715
-0.000928152
-4.60584e-05
4.12948e-05
0.000932865
-0.000922288
-3.6965e-05
3.30816e-05
0.000926122
-0.000918109
-2.94514e-05
2.60985e-05
0.000921412
-0.000915177
-2.3142e-05
2.04118e-05
0.000917858
-0.000913
-1.7929e-05
1.55332e-05
0.000915348
-0.000911232
-1.29451e-05
1.0821e-05
0.00091331
-0.00090981
-9.08495e-06
7.38896e-06
0.000911462
-0.000908825
-5.55594e-06
4.25449e-06
0.000910085
-0.000907498
-3.00377e-06
1.67343e-06
0.000908791
-0.000906683
-5.8307e-07
-4.89227e-07
0.000907723
-0.000906046
1.32921e-06
-1.84935e-06
0.00090654
-0.000905363
2.74638e-06
-3.12097e-06
0.000905717
-0.000904322
3.27627e-06
-4.40805e-06
0.000905441
-0.000904818
4.82233e-06
-3.91057e-06
0.000903901
-0.000905675
6.31601e-06
-8.23292e-06
0.000907596
-0.000906745
7.69724e-06
-7.62356e-06
0.000906684
-0.000906369
7.06591e-06
-6.40334e-06
0.000905729
-0.000905943
5.85802e-06
-5.02053e-06
0.000905138
-0.000905581
4.17771e-06
-3.33478e-06
0.00090478
-0.000907553
2.48864e-06
-1.71246e-06
0.000906828
-0.000905806
6.52814e-07
4.6611e-07
0.000904749
-0.000909748
-1.37751e-06
2.06499e-06
0.000909132
-0.000907293
-2.73473e-06
3.55122e-06
0.000906556
-0.000907273
-4.5547e-06
5.49494e-06
0.000906421
-0.000908163
-6.06302e-06
6.81599e-06
0.000907505
-0.000907038
-7.59538e-06
8.4073e-06
0.000906328
-0.000907613
-9.06882e-06
9.69936e-06
0.00090709
-0.000908286
-1.0194e-05
1.06187e-05
0.000907973
-0.000909068
-1.08554e-05
1.1054e-05
0.000908985
-0.000909902
-1.10572e-05
1.10186e-05
0.000910059
-0.000912175
-1.05803e-05
9.49573e-06
0.00091338
-0.000913487
-8.61103e-06
8.57474e-06
0.000913644
-0.000912637
-7.93314e-06
7.24245e-06
0.000913448
-0.000913829
-6.24562e-06
5.29718e-06
0.000914898
-0.000914983
-4.14032e-06
2.82463e-06
0.000916419
-0.000916335
-1.398e-06
-9.63158e-08
0.000917947
-0.000917631
1.80926e-06
-3.7041e-06
0.000919642
-0.00091925
5.72927e-06
-7.85485e-06
0.000921489
-0.000921098
1.03315e-05
-1.2835e-05
0.000923711
-0.000923433
1.56159e-05
-1.85607e-05
0.000926484
-0.000926391
2.18224e-05
-2.55031e-05
0.000930175
-0.000930646
2.93473e-05
-3.34683e-05
0.000934867
-0.000936363
3.80262e-05
-4.30457e-05
0.000941479
-0.000944795
4.85869e-05
-5.45941e-05
0.000950894
-0.000957434
6.07187e-05
-6.70297e-05
0.000963833
-0.000976359
7.49162e-05
-8.3598e-05
0.000985124
-0.00100978
9.3441e-05
-0.000103415
0.00101983
-0.00102505
0.000108655
-9.76202e-05
0.00101408
-0.000655655
6.21557e-05
-1.75687e-05
0.000611128
-0.000325963
1.90871e-05
0.000307856
-1.047e-06
-0.00091351
-5.1189e-05
7.86214e-05
0.000886015
-0.00103147
-9.08492e-05
9.00864e-05
0.00103219
-0.000993356
-8.35551e-05
7.59804e-05
0.00100088
-0.000964867
-6.89974e-05
6.26877e-05
0.000971125
-0.00094874
-5.69545e-05
5.19475e-05
0.000953695
-0.000937531
-4.66064e-05
4.15778e-05
0.000942507
-0.000930107
-3.67804e-05
3.27616e-05
0.000934073
-0.000924724
-2.90306e-05
2.55196e-05
0.000928183
-0.000920787
-2.23639e-05
1.93977e-05
0.000923701
-0.000917759
-1.66563e-05
1.40823e-05
0.000920282
-0.000915456
-1.18125e-05
9.5918e-06
0.000917627
-0.000913481
-7.75951e-06
5.6621e-06
0.000915532
-0.0009116
-3.63674e-06
1.84834e-06
0.000913344
-0.000910222
-2.24128e-07
-1.26702e-06
0.000911674
-0.000908779
2.60008e-06
-3.6966e-06
0.00090984
-0.000907625
4.94054e-06
-5.8425e-06
0.000908498
-0.000906031
6.29107e-06
-7.79647e-06
0.000907513
-0.00090598
8.64254e-06
-7.93354e-06
0.000905256
-0.0009065
1.09191e-05
-1.29515e-05
0.000908525
-0.000907008
1.25017e-05
-1.26765e-05
0.000907185
-0.000906029
1.21135e-05
-1.16858e-05
0.000905612
-0.00090524
1.1142e-05
-1.02105e-05
0.000904329
-0.000904204
9.26832e-06
-8.26303e-06
0.000903229
-0.000903707
7.11902e-06
-5.99342e-06
0.000902623
-0.000905824
5.12429e-06
-3.61754e-06
0.000904369
-0.000903433
2.11857e-06
-5.54251e-07
0.000901931
-0.000908284
-8.52575e-07
2.07346e-06
0.000907135
-0.000905397
-3.14524e-06
4.60816e-06
0.000904015
-0.000905329
-5.95073e-06
7.51632e-06
0.000903853
-0.000906664
-8.96001e-06
9.61221e-06
0.00090611
-0.000905411
-1.05579e-05
1.16731e-05
0.000904399
-0.00090638
-1.2624e-05
1.35209e-05
0.000905592
-0.000907617
-1.41234e-05
1.48277e-05
0.000907026
-0.000908793
-1.5206e-05
1.56088e-05
0.000908507
-0.000910244
-1.55792e-05
1.52714e-05
0.00091067
-0.00091504
-1.39303e-05
1.27128e-05
0.000916378
-0.000913697
-1.31468e-05
1.30019e-05
0.000913963
-0.000914484
-1.21262e-05
1.12736e-05
0.000915457
-0.000916117
-1.01918e-05
8.93318e-06
0.000917494
-0.000917822
-7.44798e-06
5.98535e-06
0.000919403
-0.000919646
-4.29786e-06
2.52883e-06
0.000921531
-0.00092165
-4.31227e-07
-1.6542e-06
0.000923849
-0.000923832
3.972e-06
-6.49299e-06
0.000926463
-0.000926527
9.15452e-06
-1.19353e-05
0.000929415
-0.000929724
1.5075e-05
-1.82563e-05
0.000933009
-0.000933806
2.18195e-05
-2.54528e-05
0.000937539
-0.000939076
2.93912e-05
-3.36436e-05
0.000943424
-0.000946377
3.81303e-05
-4.22674e-05
0.000950606
-0.000955704
4.65773e-05
-5.1982e-05
0.000961196
-0.000970617
5.79214e-05
-6.42237e-05
0.000977003
-0.000993179
7.09315e-05
-7.82528e-05
0.00100058
-0.00102758
8.58102e-05
-9.13624e-05
0.00103321
-0.000999041
8.91904e-05
-7.17047e-05
0.00098162
-0.000574689
3.99777e-05
-1.00164e-05
0.00054479
-0.000292865
1.32109e-05
0.0002803
-7.16112e-07
-0.000859735
-3.74615e-05
6.19205e-05
0.000835209
-0.00103052
-7.67976e-05
8.02535e-05
0.00102701
-0.00100771
-7.68526e-05
7.09233e-05
0.00101359
-0.000976971
-6.48228e-05
5.90141e-05
0.000982725
-0.000958774
-5.38828e-05
4.8957e-05
0.000963645
-0.000946875
-4.43373e-05
4.00391e-05
0.000951119
-0.000938558
-3.59906e-05
3.2123e-05
0.00094237
-0.000932524
-2.84804e-05
2.52069e-05
0.000935742
-0.000926813
-2.11099e-05
1.71661e-05
0.000930701
-0.000922927
-1.30093e-05
1.02291e-05
0.000925653
-0.000919732
-7.63306e-06
5.17124e-06
0.000922142
-0.000917218
-2.98757e-06
9.34899e-07
0.000919221
-0.000915232
7.443e-07
-2.18972e-06
0.000916631
-0.000913157
3.36572e-06
-5.01117e-06
0.000914761
-0.000911421
6.99225e-06
-8.52079e-06
0.000912912
-0.000909162
9.57174e-06
-1.157e-05
0.000911129
-0.000908551
1.28784e-05
-1.2504e-05
0.000908151
-0.000908509
1.60194e-05
-1.75182e-05
0.00090999
-0.000908697
1.78115e-05
-1.8685e-05
0.00090956
-0.000906694
1.85652e-05
-1.83427e-05
0.000906471
-0.000904992
1.79462e-05
-1.72288e-05
0.000904284
-0.000903291
1.61441e-05
-1.52005e-05
0.000902366
-0.000901987
1.3944e-05
-1.24982e-05
0.000900571
-0.000901772
1.09394e-05
-9.45449e-06
0.000900328
-0.000901965
8.3325e-06
-6.07331e-06
0.000899757
-0.000900028
3.9052e-06
-1.74816e-06
0.000897934
-0.000905674
-2.53245e-07
2.05814e-06
0.000903942
-0.000902359
-3.81226e-06
5.86924e-06
0.000900387
-0.000901447
-7.8803e-06
1.00282e-05
0.000899391
-0.000906334
-1.22422e-05
1.31231e-05
0.000905554
-0.000903265
-1.43993e-05
1.59101e-05
0.000901861
-0.000904596
-1.72296e-05
1.84473e-05
0.000903491
-0.000906369
-1.94107e-05
2.02394e-05
0.000905656
-0.000908298
-2.07927e-05
2.12228e-05
0.000907988
-0.000911717
-2.13716e-05
2.09033e-05
0.000912306
-0.000916086
-1.96629e-05
1.97924e-05
0.000916079
-0.000914523
-1.93472e-05
1.86908e-05
0.000915301
-0.000916454
-1.76708e-05
1.65484e-05
0.000917697
-0.00091882
-1.52733e-05
1.38016e-05
0.000920411
-0.000921148
-1.21883e-05
1.03832e-05
0.00092307
-0.000923592
-8.44544e-06
6.31805e-06
0.000925834
-0.000926126
-4.06533e-06
1.62077e-06
0.000928682
-0.000929066
9.46591e-07
-3.60631e-06
0.000931834
-0.000932361
6.49068e-06
-9.5785e-06
0.000935553
-0.000936326
1.27925e-05
-1.62217e-05
0.000939855
-0.000941259
1.9783e-05
-2.35742e-05
0.000945146
-0.00094729
2.63818e-05
-2.98446e-05
0.000950844
-0.000955068
3.4381e-05
-3.88707e-05
0.000959645
-0.000966624
4.37364e-05
-4.85767e-05
0.000971547
-0.000982857
5.40354e-05
-5.95225e-05
0.000988423
-0.00100732
6.54893e-05
-7.15014e-05
0.00101341
-0.00103672
7.6958e-05
-7.8818e-05
0.00103865
-0.000963276
7.23236e-05
-5.37686e-05
0.000944785
-0.000519919
2.77393e-05
-6.77059e-06
0.000499012
-0.000269659
9.63471e-06
0.000260458
-5.12224e-07
-0.000812546
-2.81232e-05
4.90101e-05
0.000791585
-0.00102202
-6.41014e-05
7.00592e-05
0.00101601
-0.00101879
-6.89929e-05
6.46504e-05
0.00102307
-0.000988133
-5.93813e-05
5.40592e-05
0.000993399
-0.000968372
-4.91857e-05
4.45582e-05
0.000972942
-0.00095539
-4.01777e-05
3.59494e-05
0.000959561
-0.000946063
-3.20178e-05
2.81035e-05
0.000949919
-0.0009391
-2.45724e-05
2.09453e-05
0.00094267
-0.000933745
-1.77963e-05
1.45489e-05
0.000936936
-0.000929628
-1.16704e-05
8.90066e-06
0.000932342
-0.000926118
-6.28997e-06
3.68807e-06
0.000928666
-0.000921363
-1.21247e-07
-3.52886e-06
0.000924962
-0.000918374
7.01152e-06
-1.04645e-05
0.000921778
-0.000915791
1.33353e-05
-1.51465e-05
0.000917558
-0.000913724
1.64743e-05
-1.70384e-05
0.000914248
-0.000913605
1.62999e-05
-1.38979e-05
0.000911168
-0.000912018
2.16025e-05
-2.37267e-05
0.000914114
-0.000910495
2.45394e-05
-2.54075e-05
0.000911342
-0.000909406
2.51357e-05
-2.49276e-05
0.000909185
-0.00090639
2.56677e-05
-2.57396e-05
0.000906458
-0.000903449
2.51776e-05
-2.43488e-05
0.000902626
-0.000901088
2.3181e-05
-2.1697e-05
0.000899621
-0.000898889
2.0024e-05
-1.81071e-05
0.000896999
-0.000898448
1.60341e-05
-1.37726e-05
0.000896226
-0.000897538
1.16096e-05
-9.00644e-06
0.000894986
-0.000895468
6.24953e-06
-3.35336e-06
0.000892635
-0.000901803
5.64001e-07
2.04455e-06
0.00089927
-0.000897995
-4.5809e-06
7.44328e-06
0.00089522
-0.000897046
-1.02669e-05
1.30404e-05
0.000894368
-0.000903946
-1.54578e-05
1.73553e-05
0.000902154
-0.000900122
-1.94415e-05
2.15118e-05
0.000898163
-0.000902138
-2.32839e-05
2.49094e-05
0.00090063
-0.000904757
-2.61912e-05
2.73854e-05
0.000903683
-0.000907546
-2.80345e-05
2.8404e-05
0.0009073
-0.000913511
-2.73449e-05
2.53241e-05
0.000915656
-0.000915651
-2.6438e-05
2.71795e-05
0.000915034
-0.000916091
-2.6715e-05
2.58076e-05
0.000917122
-0.000918982
-2.46048e-05
2.32716e-05
0.000920436
-0.000921962
-2.17693e-05
2.01507e-05
0.000923699
-0.000924864
-1.82812e-05
1.61071e-05
0.000927153
-0.00092795
-1.40019e-05
1.1603e-05
0.00093046
-0.000931211
-8.98362e-06
6.38416e-06
0.000933919
-0.000934768
-3.47138e-06
5.82316e-07
0.000937762
-0.000938686
2.61197e-06
-5.78056e-06
0.000941955
-0.000943397
8.93838e-06
-1.12459e-05
0.0009458
-0.000947874
1.46752e-05
-1.83916e-05
0.000951682
-0.000954926
2.22986e-05
-2.64006e-05
0.000959115
-0.000964177
3.05907e-05
-3.48752e-05
0.000968544
-0.00097646
3.94719e-05
-4.41796e-05
0.000981246
-0.000993792
4.91215e-05
-5.4335e-05
0.00099908
-0.00101905
6.02415e-05
-6.54569e-05
0.00102434
-0.00103919
6.90557e-05
-6.88489e-05
0.00103905
-0.000926661
6.10356e-05
-4.36637e-05
0.000909351
-0.000480918
2.21407e-05
-5.88542e-06
0.000464723
-0.000252586
7.20261e-06
0.000245677
-3.76548e-07
-0.000772543
-2.15208e-05
3.88249e-05
0.00075516
-0.00100889
-5.30248e-05
6.03803e-05
0.00100148
-0.00102665
-6.14208e-05
5.83712e-05
0.00102964
-0.000998367
-5.38856e-05
4.89699e-05
0.00100323
-0.000977862
-4.43462e-05
4.02279e-05
0.000981922
-0.00096369
-3.57724e-05
3.15361e-05
0.000967868
-0.000953674
-2.73426e-05
2.32301e-05
0.000957728
-0.000946182
-1.89342e-05
1.53465e-05
0.000949711
-0.000940105
-1.18878e-05
8.50238e-06
0.000943432
-0.000935168
-5.352e-06
2.27988e-06
0.000938183
-0.000931144
5.55452e-07
-3.30576e-06
0.000933839
-0.000927901
5.70995e-06
-7.81124e-06
0.000929949
-0.000924026
1.06891e-05
-1.37589e-05
0.000927046
-0.000920517
1.55361e-05
-1.77908e-05
0.000922725
-0.000918384
2.11897e-05
-2.25823e-05
0.000919733
-0.000912793
2.25956e-05
-3.22608e-05
0.000922421
-0.000914527
3.25703e-05
-3.41079e-05
0.000916032
-0.000911643
3.45802e-05
-3.50068e-05
0.000912044
-0.000909085
3.51603e-05
-3.46215e-05
0.000908528
-0.00090657
3.3588e-05
-3.41841e-05
0.000907156
-0.000901467
3.44571e-05
-3.36893e-05
0.000900699
-0.000897984
3.22031e-05
-3.03275e-05
0.00089612
-0.000894818
2.81813e-05
-2.56311e-05
0.000892291
-0.000893642
2.2861e-05
-1.98183e-05
0.000890636
-0.000891996
1.67734e-05
-1.32489e-05
0.000888521
-0.000889272
9.50132e-06
-5.53529e-06
0.00088537
-0.000896192
1.64175e-06
2.05513e-06
0.000892573
-0.000891897
-5.6928e-06
9.62881e-06
0.000888052
-0.000891165
-1.35106e-05
1.73164e-05
0.00088746
-0.000899792
-2.06985e-05
2.37392e-05
0.000896861
-0.000895818
-2.63257e-05
2.9031e-05
0.00089323
-0.000898839
-3.13947e-05
3.34896e-05
0.000896866
-0.000902509
-3.51411e-05
3.65251e-05
0.000901251
-0.000907222
-3.71784e-05
3.61911e-05
0.000908337
-0.000916743
-3.4306e-05
3.59147e-05
0.000915262
-0.000914714
-3.71151e-05
3.68161e-05
0.000915139
-0.000918094
-3.59613e-05
3.47193e-05
0.000919459
-0.000921859
-3.33553e-05
3.17373e-05
0.000923597
-0.000925729
-2.99287e-05
2.7994e-05
0.00092778
-0.00092934
-2.56971e-05
2.3299e-05
0.00093185
-0.000932967
-2.07672e-05
1.80505e-05
0.000935792
-0.00093682
-1.52285e-05
1.22321e-05
0.000939921
-0.000940932
-9.14937e-06
6.53205e-06
0.00094365
-0.000944441
-4.15824e-06
8.96996e-07
0.000947799
-0.000949461
2.73523e-06
-6.31062e-06
0.000953127
-0.000955578
1.0145e-05
-1.40246e-05
0.000959544
-0.000963244
1.82669e-05
-2.28861e-05
0.000967945
-0.000973025
2.7334e-05
-3.23879e-05
0.000978156
-0.000986
3.80578e-05
-4.30405e-05
0.000991057
-0.00100475
4.75317e-05
-5.13158e-05
0.0010086
-0.00102949
5.44111e-05
-5.77475e-05
0.0010329
-0.0010362
5.95448e-05
-5.66208e-05
0.00103334
-0.000892062
4.67022e-05
-3.11595e-05
0.000876579
-0.000451404
1.46655e-05
-3.23995e-06
0.000440036
-0.000239726
5.47657e-06
0.000234448
-2.81925e-07
-0.000739302
-1.66807e-05
3.08535e-05
0.000725049
-0.000993684
-4.37282e-05
5.15693e-05
0.000985783
-0.00103205
-5.37297e-05
5.19489e-05
0.00103377
-0.00100792
-4.81845e-05
4.37429e-05
0.0010123
-0.000986267
-3.95174e-05
3.50613e-05
0.000990664
-0.000971935
-3.07716e-05
2.64512e-05
0.000976196
-0.000961604
-2.22482e-05
1.77682e-05
0.000966024
-0.000953631
-1.40296e-05
1.03268e-05
0.000957274
-0.000947285
-6.7186e-06
3.25438e-06
0.00095069
-0.000942062
1.12165e-07
-3.32952e-06
0.000945222
-0.00093669
7.27724e-06
-1.11644e-05
0.00094052
-0.000932379
1.51401e-05
-1.9453e-05
0.000936637
-0.000928618
2.24898e-05
-2.49132e-05
0.000930988
-0.000926577
2.66729e-05
-2.67735e-05
0.000926628
-0.000920004
2.73471e-05
-3.81138e-05
0.000930724
-0.000922056
3.81109e-05
-4.0763e-05
0.000924666
-0.000918147
4.29351e-05
-4.43485e-05
0.000919522
-0.000912986
4.57955e-05
-4.70515e-05
0.00091421
-0.000908129
4.80664e-05
-4.85241e-05
0.000908561
-0.000905935
4.80037e-05
-4.67635e-05
0.000904678
-0.000900195
4.64395e-05
-4.60416e-05
0.000899789
-0.000894095
4.44093e-05
-4.19546e-05
0.000891645
-0.000889427
3.91504e-05
-3.5857e-05
0.000886149
-0.000887145
3.21897e-05
-2.81056e-05
0.000883092
-0.000884433
2.38532e-05
-1.91217e-05
0.000879747
-0.000880749
1.39716e-05
-8.55052e-06
0.00087539
-0.000888188
3.13314e-06
2.12316e-06
0.000883011
-0.000883446
-7.30654e-06
1.27892e-05
0.000878058
-0.0008831
-1.81123e-05
2.32523e-05
0.000878066
-0.000893305
-2.78268e-05
3.21077e-05
0.00088914
-0.000890513
-3.60104e-05
3.95943e-05
0.000887053
-0.00089455
-4.23787e-05
4.50239e-05
0.000892034
-0.000899983
-4.70732e-05
4.84394e-05
0.000898748
-0.000909732
-4.79818e-05
4.6679e-05
0.000911166
-0.000913299
-4.83626e-05
4.9595e-05
0.000912197
-0.000915825
-4.93822e-05
4.86106e-05
0.000916723
-0.000920726
-4.7322e-05
4.59107e-05
0.000922259
-0.000925469
-4.40505e-05
4.20097e-05
0.000927628
-0.00093008
-3.96729e-05
3.72997e-05
0.000932566
-0.00093441
-3.45705e-05
3.18456e-05
0.000937243
-0.000938756
-2.8799e-05
2.57849e-05
0.000941874
-0.000942826
-2.33334e-05
2.07217e-05
0.000945537
-0.000946463
-1.72107e-05
1.36617e-05
0.000950106
-0.000951541
-9.76155e-06
5.41473e-06
0.000955979
-0.000957153
-1.14274e-06
-3.57701e-06
0.000961959
-0.000963742
9.0642e-06
-1.35094e-05
0.000968269
-0.000973611
1.6664e-05
-1.87384e-05
0.000975763
-0.000981489
2.19773e-05
-2.57694e-05
0.000985354
-0.000994643
2.94464e-05
-3.35988e-05
0.000998865
-0.00101304
3.79936e-05
-4.22804e-05
0.00101739
-0.00103642
4.64961e-05
-4.97002e-05
0.00103968
-0.0010301
5.04217e-05
-4.66201e-05
0.00102636
-0.00086219
3.72998e-05
-2.40502e-05
0.000848997
-0.000430232
1.09539e-05
-2.33903e-06
0.000421671
-0.00022989
4.20256e-06
0.000225815
-2.11966e-07
-0.000711903
-1.3036e-05
2.47302e-05
0.000700127
-0.000978037
-3.59254e-05
4.35683e-05
0.000970333
-0.00103515
-4.65465e-05
4.56401e-05
0.001036
-0.00101688
-4.25038e-05
3.86154e-05
0.00102071
-0.000995055
-3.41899e-05
2.98816e-05
0.000999304
-0.000980165
-2.54731e-05
2.11112e-05
0.000984467
-0.000969655
-1.65118e-05
1.25753e-05
0.000973531
-0.000961445
-8.70416e-06
4.94086e-06
0.000965147
-0.000954967
-1.13182e-06
-2.46337e-06
0.000958502
-0.000948644
6.10115e-06
-1.03613e-05
0.000952845
-0.000943603
1.46518e-05
-1.9231e-05
0.000948124
-0.000939149
2.40348e-05
-2.76399e-05
0.000942697
-0.000935377
3.06192e-05
-3.29126e-05
0.000937615
-0.000931669
3.35293e-05
-3.47112e-05
0.000932797
-0.000931596
4.73724e-05
-4.96998e-05
0.000933872
-0.000926829
5.25896e-05
-5.41678e-05
0.00092836
-0.000921886
5.57276e-05
-5.75995e-05
0.000923714
-0.000915443
5.98726e-05
-6.1742e-05
0.000917273
-0.000909154
6.29165e-05
-6.3575e-05
0.000909778
-0.000903414
6.37598e-05
-6.28558e-05
0.000902484
-0.000899988
6.09156e-05
-6.02461e-05
0.0008993
-0.000889301
5.98253e-05
-5.77392e-05
0.000887209
-0.000882337
5.44109e-05
-5.02952e-05
0.000878228
-0.000878099
4.53246e-05
-3.87287e-05
0.000871525
-0.000874785
3.07657e-05
-2.5992e-05
0.000870052
-0.000869047
2.01494e-05
-1.28328e-05
0.00086179
-0.00087676
5.2346e-06
2.30264e-06
0.000869303
-0.000871642
-9.76444e-06
1.7415e-05
0.00086409
-0.000872395
-2.45918e-05
3.01833e-05
0.000866916
-0.000883446
-3.42628e-05
4.23709e-05
0.000875463
-0.000882949
-4.90047e-05
5.3927e-05
0.00087816
-0.00088932
-5.78328e-05
6.07977e-05
0.000886491
-0.000898116
-6.23772e-05
6.14264e-05
0.000899203
-0.0009107
-6.02628e-05
6.35475e-05
0.00090755
-0.000911573
-6.54844e-05
6.555e-05
0.000911638
-0.000917789
-6.44915e-05
6.31916e-05
0.000919214
-0.000924094
-6.1339e-05
5.92354e-05
0.000926317
-0.000929904
-5.67607e-05
5.42079e-05
0.00093257
-0.000935273
-5.1357e-05
4.82795e-05
0.000938458
-0.000940391
-4.51788e-05
4.25467e-05
0.000943126
-0.000944325
-3.94001e-05
3.54667e-05
0.000948356
-0.000949358
-3.05604e-05
2.55148e-05
0.000954497
-0.00095431
-1.95081e-05
1.5035e-05
0.000958872
-0.000961796
-1.21241e-05
1.04916e-05
0.000963513
-0.00096484
-7.42483e-06
3.74784e-06
0.000968597
-0.000971316
-3.21691e-07
-3.50596e-06
0.000975219
-0.000979301
7.50652e-06
-1.1594e-05
0.00098346
-0.000989518
1.57452e-05
-1.98871e-05
0.000993728
-0.00100303
2.4104e-05
-2.83296e-05
0.00100732
-0.00102172
3.25116e-05
-3.67107e-05
0.00102598
-0.00104244
4.05182e-05
-4.30398e-05
0.00104502
-0.0010222
4.28204e-05
-3.85838e-05
0.00101802
-0.00083674
2.98494e-05
-1.85781e-05
0.000825522
-0.000414125
8.21907e-06
-1.6235e-06
0.00040758
-0.000222263
3.19994e-06
0.000219138
-1.5889e-07
-0.000689396
-1.0237e-05
1.98802e-05
0.000679671
-0.000962863