/*--------------------------------*- C++ -*----------------------------------*\
  =========                 |
  \\      /  F ield         | OpenFOAM: The Open Source CFD Toolbox
   \\    /   O peration     | Website:  https://openfoam.org
    \\  /    A nd           | Version:  7
     \\/     M anipulation  |
\*---------------------------------------------------------------------------*/
FoamFile
{
    version     2.0;
    format      ascii;
    class       volVectorField;
    location    "55";
    object      U;
}
// * * * * * * * * * * * * * * * * * * * * * * * * * * * * * * * * * * * * * //

dimensions      [0 1 -1 0 0 0 0];

internalField   nonuniform List<vector> 
17475
(
(1.01827 0.205788 -1.67567e-20)
(0.995999 0.0223648 -2.67598e-20)
(0.999791 0.00972812 0)
(0.999947 0.00486972 0)
(0.999983 0.00302609 0)
(0.999994 0.00206375 0)
(0.999998 0.00147613 0)
(1 0.00107942 0)
(1 0.000793098 -5.6792e-20)
(1 0.000576489 0)
(1 0.000407015 0)
(1 0.000271267 0)
(1 0.000161073 0)
(1 7.09253e-05 0)
(1 -2.52709e-06 0)
(1 -6.17412e-05 0)
(1 -0.000108135 0)
(1 -0.000142923 0)
(1 -0.000166798 0)
(1 -0.00018053 0)
(1 -0.000184529 -2.17839e-19)
(1 -0.000179658 3.80829e-22)
(1 -0.000166518 0)
(1 -0.000146079 -6.86639e-21)
(1 -0.000120042 0)
(1 -8.77296e-05 -1.37278e-20)
(1 -5.25221e-05 0)
(1 -1.53636e-05 0)
(1 2.22924e-05 -1.71442e-21)
(1 5.87134e-05 5.46914e-20)
(0.999999 9.23905e-05 5.37543e-20)
(0.999999 0.000121711 0)
(0.999999 0.000145431 0)
(0.999999 0.000162242 -5.37661e-20)
(0.999999 0.000171223 -5.36229e-20)
(0.999998 0.000171384 0)
(0.999998 0.000162059 -4.13835e-22)
(0.999998 0.000142463 0)
(0.999998 0.000111953 5.23776e-20)
(0.999998 6.93086e-05 2.61064e-20)
(0.999998 1.40748e-05 -2.6027e-20)
(0.999998 -5.506e-05 0)
(0.999998 -0.000140168 -2.60264e-20)
(0.999998 -0.00024447 0)
(0.999997 -0.000372782 -1.31179e-20)
(0.999997 -0.000532484 0)
(0.999997 -0.000735038 2.69902e-20)
(0.999996 -0.00099884 0)
(0.999995 -0.00135418 0)
(0.999993 -0.00185266 0)
(0.999989 -0.00258405 0)
(0.999985 -0.00368916 -1.64632e-20)
(0.99995 -0.00537854 3.65741e-20)
(0.998949 -0.00294653 4.0292e-20)
(1.02904 -0.0897339 -3.9396e-20)
(0.871079 0.0788381 2.33551e-20)
(1.10024 0.0972055 0)
(1.03475 0.0584339 0)
(1.01498 0.0373213 0)
(1.0078 0.025333 -1.67568e-19)
(1.00466 0.0180375 -1.61788e-19)
(1.00306 0.0132621 1.54827e-19)
(1.00215 0.00993357 0)
(1.00159 0.00749447 0)
(1.00121 0.00563829 0)
(1.00095 0.00418569 0)
(1.00075 0.00302675 0)
(1.0006 0.00209176 0)
(1.00048 0.00133481 0)
(1.00038 0.000725949 0)
(1.00029 0.000244457 0)
(1.00021 -0.000123333 0)
(1.00014 -0.000387667 0)
(1.00008 -0.000555652 0)
(1.00002 -0.000633842 0)
(0.999968 -0.000627716 0)
(0.99992 -0.000544255 0)
(0.999879 -0.000390211 2.77054e-19)
(0.999843 -0.000173605 -6.92398e-20)
(0.999819 9.59145e-05 -1.3812e-19)
(0.999803 0.000403638 -1.81714e-22)
(0.999797 0.00073792 -1.70521e-20)
(0.999802 0.00108349 0)
(0.999818 0.00142639 -8.40464e-21)
(0.999845 0.00175102 8.32978e-21)
(0.999881 0.00204293 -1.32399e-19)
(0.999927 0.00228815 1.33081e-19)
(0.99998 0.00247478 0)
(1.00004 0.00259213 -2.55446e-19)
(1.00011 0.00263159 1.97146e-21)
(1.00018 0.00258573 2.49537e-19)
(1.00025 0.00244865 0)
(1.00032 0.00221479 1.21764e-19)
(1.0004 0.00187924 0)
(1.00049 0.00143419 -1.20151e-19)
(1.00058 0.000871744 1.19357e-19)
(1.00068 0.000180102 0)
(1.0008 -0.000658942 0)
(1.00095 -0.00167328 0)
(1.00113 -0.00290496 1.21926e-22)
(1.00138 -0.00441836 5.98843e-20)
(1.00172 -0.00631268 -6.07612e-20)
(1.00222 -0.00874502 -3.08589e-20)
(1.00297 -0.0119715 0)
(1.00417 -0.0164259 0)
(1.00618 -0.0228828 0)
(1.00971 -0.0328093 -3.48581e-20)
(1.01627 -0.0495188 3.63374e-20)
(1.02835 -0.0727601 2.38054e-21)
(1.07066 -0.178124 2.80828e-21)
(0.609434 0.0196509 1.24057e-20)
(1.13901 0.106503 -1.79566e-20)
(1.07826 0.0754545 -7.46486e-20)
(1.04083 0.0543252 0)
(1.02437 0.0402045 0)
(1.01579 0.0302113 -1.50557e-19)
(1.01089 0.0229024 0)
(1.0079 0.0174164 0)
(1.00595 0.0131912 0)
(1.00462 0.00986085 2.90483e-19)
(1.00366 0.0071859 0)
(1.00294 0.00500771 0)
(1.00238 0.00322044 0)
(1.00192 0.00175255 0)
(1.00153 0.000555887 0)
(1.00119 -0.000402556 -2.81997e-19)
(1.00088 -0.00114492 0)
(1.0006 -0.00168702 0)
(1.00034 -0.00204055 0)
(1.0001 -0.00221552 0)
(0.999871 -0.00222155 5.60783e-19)
(0.999668 -0.00206899 0)
(0.999486 -0.00177134 2.09001e-19)
(0.999336 -0.00134219 -1.38732e-19)
(0.999219 -0.000804809 0)
(0.999139 -0.000181686 -3.43948e-20)
(0.9991 0.000500521 0)
(0.999101 0.00121204 4.25081e-20)
(0.999147 0.00192357 2.53554e-20)
(0.999235 0.00260342 0)
(0.999365 0.00322181 -1.15968e-19)
(0.999531 0.00375059 4.08416e-21)
(0.999729 0.00416574 -2.01631e-21)
(0.999955 0.00444592 -1.27817e-19)
(1.0002 0.00457372 1.26174e-19)
(1.00047 0.00453496 0)
(1.00074 0.00431836 2.37678e-19)
(1.00104 0.00391394 -2.41765e-19)
(1.00134 0.00331277 2.55755e-19)
(1.00167 0.00250283 0)
(1.00203 0.00147018 2.97375e-20)
(1.00242 0.000194485 -3.8667e-22)
(1.00288 -0.00135447 1.16488e-19)
(1.00343 -0.00322238 -5.14492e-22)
(1.00412 -0.00547768 -5.805e-20)
(1.00503 -0.00822177 0)
(1.00627 -0.0116078 0)
(1.00806 -0.0158676 2.93096e-20)
(1.01071 -0.0213594 -3.02873e-20)
(1.01485 -0.0286468 -4.8646e-22)
(1.02163 -0.0386262 9.28564e-20)
(1.03327 -0.0527774 -6.36997e-20)
(1.05431 -0.0733353 6.24531e-20)
(1.1007 -0.105223 0)
(0.963478 -0.117734 3.2405e-20)
(0.480554 0.00950539 0)
(1.1155 0.0897878 0)
(1.11454 0.0803238 3.31039e-20)
(1.06557 0.0610393 0)
(1.04218 0.0473643 1.4119e-19)
(1.02915 0.0369423 0)
(1.02113 0.0287746 0)
(1.01588 0.0222607 0)
(1.0123 0.0169892 0)
(1.00974 0.0126672 0)
(1.00785 0.00908706 0)
(1.00639 0.00609874 0)
(1.00523 0.00359803 2.80611e-19)
(1.00426 0.00151075 0)
(1.00343 -0.000213449 0)
(1.00269 -0.0016093 0)
(1.00201 -0.00269988 0)
(1.00138 -0.00350216 0)
(1.00079 -0.00402686 0)
(1.00023 -0.00428371 -2.8059e-19)
(0.999713 -0.00428247 0)
(0.999232 -0.00403731 0)
(0.998805 -0.00356021 -1.39581e-19)
(0.998439 -0.00287888 0)
(0.998147 -0.00202315 -2.08483e-19)
(0.997938 -0.00102854 3.43527e-20)
(0.997823 6.29372e-05 -1.37436e-19)
(0.997807 0.00120582 2.65989e-22)
(0.99789 0.00235311 6.75762e-20)
(0.998073 0.00345125 5.03899e-20)
(0.99835 0.00445779 1.32781e-19)
(0.998713 0.00532513 4.08513e-21)
(0.99915 0.00601632 0)
(0.999647 0.0064995 -8.85311e-22)
(1.00019 0.0067491 0)
(1.00078 0.00674542 -1.1526e-19)
(1.0014 0.0064737 -1.21263e-19)
(1.00204 0.0059223 1.20138e-19)
(1.00272 0.00508331 2.36583e-19)
(1.00343 0.00394274 9.56358e-20)
(1.00419 0.00248717 -2.91669e-20)
(1.00504 0.000695072 -5.75597e-20)
(1.006 -0.0014657 0)
(1.00715 -0.00404408 0)
(1.00857 -0.00711211 -5.64075e-20)
(1.0104 -0.0107741 5.6237e-20)
(1.01285 -0.0151802 1.40288e-19)
(1.01624 -0.020544 2.84277e-20)
(1.02114 -0.0271695 -1.34801e-22)
(1.02847 -0.0354857 -2.77898e-20)
(1.03984 -0.0460919 1.11725e-19)
(1.05817 -0.0598547 -8.31133e-20)
(1.09024 -0.0781182 7.83262e-20)
(1.13357 -0.100441 5.00051e-20)
(0.813425 -0.0597156 -1.4192e-20)
(0.400354 0.00532623 0)
(1.06074 0.0686941 -3.11509e-20)
(1.13771 0.076485 6.03795e-20)
(1.08796 0.0614253 6.37822e-20)
(1.05906 0.04923 6.60192e-20)
(1.04261 0.0394603 1.34501e-19)
(1.03206 0.0313534 -1.35687e-19)
(1.02488 0.024545 -1.36831e-19)
(1.01976 0.0187864 0)
(1.01599 0.0138865 -2.75307e-19)
(1.01311 0.00969874 -5.51095e-19)
(1.01083 0.00611241 -2.76342e-19)
(1.00897 0.00304649 -2.76888e-19)
(1.00739 0.00044192 0)
(1.006 -0.00174087 0)
(1.00474 -0.00352946 0)
(1.00357 -0.00493996 -5.57916e-19)
(1.00246 -0.00598137 -4.37406e-22)
(1.00141 -0.00665869 -5.59303e-19)
(1.00041 -0.00697634 -2.7992e-19)
(0.999452 -0.00694235 -6.97849e-20)
(0.998566 -0.00656164 1.39599e-19)
(0.997764 -0.0058583 -1.40132e-19)
(0.997071 -0.0048622 1.39663e-19)
(0.996508 -0.00361327 0)
(0.996098 -0.00215937 -6.98538e-20)
(0.995859 -0.00056138 1.38587e-19)
(0.995803 0.00111544 0)
(0.995934 0.00280258 -3.38805e-20)
(0.99625 0.00441978 -1.68993e-20)
(0.99674 0.00590707 -1.33349e-19)
(0.997389 0.0071941 1.23045e-20)
(0.998171 0.00822971 0)
(0.999063 0.00897108 1.35317e-19)
(1.00004 0.00938562 0)
(1.00108 0.00944995 0)
(1.00217 0.00914913 -2.39891e-19)
(1.00331 0.00847621 -5.72722e-20)
(1.00448 0.00742327 1.23785e-19)
(1.0057 0.0059851 1.08443e-19)
(1.007 0.00415428 -1.27879e-19)
(1.00841 0.00191676 -1.12988e-19)
(1.01 -0.00075215 -1.39103e-19)
(1.01185 -0.00389032 8.26058e-20)
(1.01409 -0.00755547 1.09097e-19)
(1.0169 -0.0118297 -2.6741e-20)
(1.02056 -0.0168266 0)
(1.0255 -0.0226973 -5.31222e-20)
(1.03237 -0.029639 -5.26131e-20)
(1.04223 -0.0379043 -2.64046e-20)
(1.05688 -0.0477995 -2.49458e-20)
(1.07955 -0.0597189 -7.42444e-20)
(1.11743 -0.0744375 -4.59732e-20)
(1.12338 -0.0824287 0)
(0.69467 -0.0290563 7.49948e-20)
(0.350926 0.00326453 0)
(0.998648 0.0512108 0)
(1.14607 0.0689849 -1.1414e-19)
(1.10691 0.0588268 -1.19864e-19)
(1.07422 0.048042 0)
(1.05527 0.0391304 0)
(1.04287 0.0314366 1.29501e-19)
(1.03416 0.0247026 0)
(1.02778 0.0187891 0)
(1.02293 0.0135857 0)
(1.01912 0.00900622 -2.68878e-19)
(1.01603 0.00498385 -2.70521e-19)
(1.01343 0.00146877 0)
(1.01118 -0.00157347 0)
(1.00916 -0.0041644 -7.72103e-22)
(1.00729 -0.00631605 0)
(1.00553 -0.00802921 1.10439e-18)
(1.00383 -0.00929992 1.1126e-18)
(1.00218 -0.0101203 -5.56887e-19)
(1.00058 -0.0104868 2.77854e-19)
(0.999046 -0.0103865 3.48905e-19)
(0.997599 -0.00983153 -7.00828e-20)
(0.996276 -0.00884008 4.21676e-19)
(0.995117 -0.00744613 -6.9738e-20)
(0.994163 -0.00569833 -7.55753e-23)
(0.993457 -0.00365925 -1.40232e-19)
(0.993032 -0.00141358 1.76169e-19)
(0.992909 0.000947917 1.38889e-19)
(0.9931 0.00332788 -4.36511e-22)
(0.9936 0.00561003 6.79319e-20)
(0.994388 0.0077113 6.6662e-20)
(0.995434 0.009532 0)
(0.996695 0.0110043 -1.16666e-19)
(0.998127 0.0120743 0)
(0.999687 0.0127031 0)
(1.00134 0.0128676 1.52608e-19)
(1.00305 0.0125594 -1.21077e-19)
(1.00481 0.0117776 0)
(1.0066 0.0105226 7.19946e-21)
(1.00845 0.00880551 0)
(1.01037 0.00663143 0)
(1.01243 0.00400093 -1.23792e-19)
(1.0147 0.000905341 1.36132e-20)
(1.01728 -0.00267433 2.23072e-22)
(1.02033 -0.00677111 -1.29738e-20)
(1.02408 -0.0114345 -1.29196e-19)
(1.02882 -0.0167325 -1.2569e-20)
(1.03504 -0.0227505 1.12563e-19)
(1.04342 -0.0295931 -9.85526e-20)
(1.05509 -0.0373748 0)
(1.07186 -0.0462437 4.60449e-20)
(1.09733 -0.056439 9.03753e-22)
(1.13449 -0.067764 -4.24083e-20)
(1.09021 -0.0646351 -6.39806e-20)
(0.614382 -0.0165539 0)
(0.317712 0.00222553 1.20333e-20)
(0.940692 0.0383538 -3.0864e-20)
(1.14287 0.0602126 5.49396e-20)
(1.12231 0.0547134 0)
(1.0879 0.0452375 0)
(1.067 0.037063 -1.2094e-19)
(1.05324 0.0298163 0)
(1.0434 0.0232707 -2.52184e-19)
(1.03602 0.0173372 -2.5564e-19)
(1.03027 0.0119622 0)
(1.02565 0.00710572 -1.31113e-19)
(1.02181 0.0027409 2.6493e-19)
(1.01851 -0.00115502 -5.34326e-19)
(1.01558 -0.00459452 0)
(1.01289 -0.0075764 0)
(1.01035 -0.0100909 0)
(1.00789 -0.0121174 -4.25091e-21)
(1.00548 -0.0136319 0)
(1.0031 -0.0146128 0)
(1.00074 -0.0150225 2.7675e-19)
(0.998447 -0.0148449 1.94471e-23)
(0.996255 -0.0140763 0)
(0.994224 -0.0127274 0)
(0.99242 -0.010831 4.27379e-19)
(0.990916 -0.00844348 2.85589e-19)
(0.989784 -0.00564274 3.56811e-20)
(0.989086 -0.00255331 0)
(0.988862 0.00070731 2.83632e-19)
(0.98913 0.00399928 1.05234e-19)
(0.989883 0.00715017 -7.08539e-23)
(0.991083 0.0100477 0)
(0.992676 0.0125593 0)
(0.994591 0.0145867 6.75924e-21)
(0.996751 0.0160669 0)
(0.999082 0.0169589 0)
(1.00152 0.0172452 -1.26709e-22)
(1.00403 0.0169333 -2.33646e-19)
(1.00655 0.0160297 -1.16905e-19)
(1.00909 0.0145592 1.1299e-19)
(1.01165 0.0125523 6.83708e-21)
(1.01428 0.0100352 -1.07389e-19)
(1.01703 0.00702855 9.27346e-22)
(1.01999 0.00354564 8.27297e-22)
(1.02329 -0.000410053 1.29323e-20)
(1.02709 -0.00484402 -8.81047e-20)
(1.03165 -0.00977372 0)
(1.03729 -0.015227 -1.08986e-19)
(1.04448 -0.0212347 0)
(1.05396 -0.0278434 -4.60146e-20)
(1.06684 -0.0351039 0)
(1.08503 -0.0431001 4.35078e-20)
(1.11219 -0.0520183 -2.19641e-22)
(1.1425 -0.0602065 -1.92802e-20)
(1.04983 -0.0503305 -6.07954e-20)
(0.559672 -0.0110611 2.97383e-20)
(0.294077 0.00159273 0)
(0.890489 0.0291504 -3.08693e-20)
(1.13201 0.0515298 0)
(1.13408 0.049853 0)
(1.10037 0.04161 5.62132e-20)
(1.07795 0.0339739 6.16752e-22)
(1.06318 0.0270777 0)
(1.05251 0.0206994 -1.20856e-19)
(1.04438 0.014769 -2.46882e-19)
(1.03792 0.00926053 0)
(1.03262 0.00416328 0)
(1.02812 -0.000525997 0)
(1.02416 -0.00480034 0)
(1.02057 -0.00864886 -3.9188e-19)
(1.01719 -0.0120456 -1.31316e-19)
(1.01393 -0.014957 0)
(1.0107 -0.0173421 1.67583e-20)
(1.00746 -0.0191642 4.04105e-19)
(1.00419 -0.0203487 -4.39448e-22)
(1.0009 -0.0208442 -1.37804e-19)
(0.997633 -0.0206009 0)
(0.994461 -0.0195962 1.40883e-19)
(0.991473 -0.0178203 2.10556e-22)
(0.98878 -0.0152975 1.45584e-19)
(0.986501 -0.0120889 0)
(0.98476 -0.00829038 -7.29375e-20)
(0.983663 -0.00407714 -7.30104e-20)
(0.983281 0.000388925 1.46477e-19)
(0.983651 0.00490524 7.24404e-20)
(0.984758 0.00921796 -1.41257e-19)
(0.986538 0.0131686 0)
(0.988895 0.0165713 -1.6907e-20)
(0.991705 0.019297 -1.31734e-19)
(0.994843 0.0212741 1.59094e-20)
(0.998187 0.0224649 1.70899e-21)
(1.00164 0.0228716 2.33678e-19)
(1.00513 0.0225224 1.17291e-19)
(1.00858 0.0214434 1.13418e-19)
(1.01198 0.0196997 -1.08856e-19)
(1.01535 0.0173487 0)
(1.01873 0.0144436 1.10114e-19)
(1.02219 0.0110315 0)
(1.02583 0.00715006 0)
(1.0298 0.00282727 -9.86852e-20)
(1.03426 -0.00191913 0)
(1.03949 -0.00707689 4.62469e-20)
(1.04582 -0.01264 9.14342e-20)
(1.05374 -0.0186183 2.28273e-20)
(1.06398 -0.0250224 -8.65399e-20)
(1.07769 -0.0318761 0)
(1.09688 -0.0392477 4.09834e-20)
(1.12463 -0.0472045 0)
(1.14342 -0.0525836 -1.77288e-20)
(1.00957 -0.0393308 3.84744e-20)
(0.519592 -0.00798884 0)
(0.276587 0.00117225 0)
(0.848325 0.0224585 -3.07487e-20)
(1.11692 0.0435271 -5.16649e-20)
(1.1425 0.0446641 5.16285e-20)
(1.11187 0.0375908 -5.32533e-20)
(1.08837 0.0303272 -1.10208e-19)
(1.0728 0.0236435 0)
(1.06154 0.017349 0)
(1.05285 0.0113725 0)
(1.04587 0.00570278 0)
(1.04003 0.000343825 2.45822e-19)
(1.03497 -0.00469232 0)
(1.03044 -0.00938394 -5.02248e-19)
(1.02622 -0.0136981 0)
(1.02216 -0.017587 0)
(1.01814 -0.0209975 4.84738e-19)
(1.01408 -0.0238606 3.92375e-19)
(1.00989 -0.0260877 -1.33976e-19)
(1.00557 -0.027587 -1.3478e-19)
(1.00114 -0.0282657 1.3725e-19)
(0.996633 -0.0280242 5.59435e-19)
(0.992167 -0.0267959 2.84886e-19)
(0.987884 -0.0245407 -1.43807e-19)
(0.98395 -0.0212551 0)
(0.980566 -0.0169957 1.96409e-21)
(0.977935 -0.0118766 7.48853e-20)
(0.976245 -0.00614297 -7.43775e-20)
(0.975622 -2.72795e-05 -1.88977e-19)
(0.976133 0.00616852 2.70454e-22)
(0.977749 0.0120621 0)
(0.980364 0.0174196 -7.07307e-20)
(0.983807 0.0219795 -1.35967e-19)
(0.987864 0.0255724 1.31179e-19)
(0.992329 0.0281245 -1.26346e-19)
(0.997013 0.0296165 -1.5432e-19)
(1.00177 0.0300941 -2.36132e-19)
(1.00647 0.029606 5.69061e-20)
(1.01102 0.0282371 2.73298e-20)
(1.01541 0.0261005 0)
(1.01966 0.0232919 0)
(1.02383 0.0198994 -6.30788e-21)
(1.02799 0.0160004 1.95006e-19)
(1.03227 0.0116581 9.57646e-20)
(1.03682 0.00692328 0)
(1.04184 0.00183958 9.11611e-20)
(1.0476 -0.0035665 2.16744e-20)
(1.05445 -0.00927605 -2.20795e-20)
(1.06288 -0.0152783 5.2498e-21)
(1.07364 -0.0215714 7.95555e-20)
(1.08795 -0.0281747 3.1167e-19)
(1.10787 -0.0351468 1.50509e-19)
(1.13494 -0.0423169 -3.51161e-20)
(1.13926 -0.0453633 -3.49777e-20)
(0.972979 -0.0310307 -5.68113e-20)
(0.490034 -0.00587975 1.13e-19)
(0.263359 0.000876721 0)
(0.813423 0.017479 -6.1082e-20)
(1.10008 0.0364241 5.0262e-20)
(1.14807 0.0394116 -4.90261e-20)
(1.12252 0.0334105 1.01626e-19)
(1.09849 0.0264115 1.0598e-19)
(1.0823 0.0198146 -2.1741e-19)
(1.0706 0.0135044 6.54735e-22)
(1.06154 0.0074068 -1.13769e-19)
(1.05417 0.00151009 -2.33784e-19)
(1.04793 -0.00417626 -2.36243e-19)
(1.04245 -0.00963284 0)
(1.03743 -0.0148242 2.40981e-19)
(1.03266 -0.0197002 0)
(1.02796 -0.0241982 -5.10635e-19)
(1.0232 -0.0282522 -6.19789e-20)
(1.01822 -0.0317634 -2.55408e-19)
(1.01298 -0.0345963 3.91362e-19)
(1.00745 -0.0366139 -5.305e-19)
(1.00163 -0.0376671 0)
(0.99557 -0.0375931 2.78766e-19)
(0.989397 -0.0362274 -4.27126e-19)
(0.983337 -0.033488 1.45462e-19)
(0.977648 -0.0293091 0)
(0.972648 -0.0237164 -1.52333e-19)
(0.968681 -0.0168327 7.6155e-20)
(0.966081 -0.00900311 1.57927e-19)
(0.965079 -0.000574454 1.5522e-19)
(0.965793 0.00798499 -1.54256e-19)
(0.968174 0.016077 0)
(0.97203 0.0233447 0)
(0.977062 0.0294059 1.73248e-19)
(0.982895 0.0340483 2.52684e-21)
(0.989193 0.0372136 -2.23333e-19)
(0.995669 0.0389425 -3.64657e-19)
(1.00209 0.0393399 5.84784e-20)
(1.00826 0.0385087 -2.76474e-20)
(1.0141 0.0366421 0)
(1.0196 0.0339068 0)
(1.02479 0.0304527 8.70315e-20)
(1.02975 0.0264099 1.06548e-19)
(1.03457 0.0218874 -9.988e-21)
(1.03942 0.0169776 0)
(1.04446 0.0117506 -8.74622e-20)
(1.04991 0.00625489 6.26429e-20)
(1.05606 0.000527356 1.64909e-19)
(1.06327 -0.00540348 0)
(1.07205 -0.011511 0)
(1.08316 -0.0177871 4.69145e-21)
(1.09786 -0.0242643 -1.08446e-19)
(1.11821 -0.0310005 1.0436e-19)
(1.14324 -0.0374895 -1.6954e-20)
(1.13217 -0.0387356 1.46397e-19)
(0.941574 -0.0246572 -1.45702e-19)
(0.468439 -0.00449903 2.32037e-19)
(0.25323 0.000658137 0)
(0.784714 0.0136919 -2.99849e-20)
(1.0831 0.0302529 7.30829e-20)
(1.15139 0.0342953 -4.69905e-20)
(1.13242 0.0292273 -9.76617e-20)
(1.10848 0.0224268 -2.01464e-19)
(1.09182 0.0158161 -1.04134e-19)
(1.07983 0.00939907 -1.06946e-19)
(1.07054 0.00309992 0)
(1.06295 -0.00310049 0)
(1.05646 -0.00919701 0)
(1.05067 -0.0151643 0)
(1.04529 -0.020965 1.15161e-19)
(1.04008 -0.0265394 -2.33834e-19)
(1.03482 -0.0318166 0)
(1.02934 -0.0367388 1.82564e-19)
(1.02347 -0.0411384 -1.22854e-19)
(1.01713 -0.0448569 2.82384e-21)
(1.01022 -0.0477115 2.62202e-19)
(1.00274 -0.0494738 1.94398e-21)
(0.994735 -0.0498872 2.7911e-19)
(0.986322 -0.0486512 -2.87137e-19)
(0.977795 -0.0455346 0)
(0.969571 -0.040387 -1.54286e-19)
(0.962146 -0.0331361 -1.60979e-19)
(0.956101 -0.0238896 0)
(0.952044 -0.0130842 -1.65665e-19)
(0.950413 -0.00131028 2.10432e-19)
(0.95144 0.0106858 4.10897e-20)
(0.955028 0.0219284 -2.15443e-19)
(0.960821 0.0318438 -7.62752e-20)
(0.968252 0.0398315 -1.2369e-19)
(0.976685 0.0456751 1.33746e-19)
(0.985557 0.0493891 0)
(0.994446 0.0511474 2.40594e-19)
(1.00296 0.0511204 -2.87088e-20)
(1.01091 0.0495978 2.7031e-20)
(1.01822 0.0468849 0)
(1.02491 0.0432322 2.45922e-20)
(1.03104 0.0388553 1.17279e-19)
(1.03674 0.0339311 0)
(1.04215 0.0286061 -8.67786e-20)
(1.04745 0.0229784 -8.24746e-20)
(1.05286 0.0171265 0)
(1.05861 0.0111142 7.78842e-20)
(1.065 0.00499041 -3.79528e-20)
(1.07239 -0.00122778 0)
(1.08133 -0.00752069 -3.56027e-20)
(1.09261 -0.0138822 -6.99943e-20)
(1.10755 -0.0203468 -6.77798e-20)
(1.12801 -0.026941 3.28823e-20)
(1.14985 -0.0328212 9.27589e-20)
(1.12353 -0.032801 6.15336e-20)
(0.914809 -0.0197022 -1.21724e-19)
(0.451937 -0.00346839 -7.76853e-20)
(0.245403 0.000494662 0)
(0.761172 0.0107639 0)
(1.06695 0.024975 0)
(1.15306 0.0294715 0)
(1.14163 0.0251719 0)
(1.11843 0.0185297 0)
(1.1015 0.0118352 0)
(1.08936 0.00524 0)
(1.07998 -0.00133113 2.08646e-19)
(1.07231 -0.00790962 0)
(1.06573 -0.0144944 -2.12925e-19)
(1.05981 -0.0210699 0)
(1.05423 -0.0275972 0)
(1.04873 -0.0340274 4.49271e-19)
(1.04306 -0.0403094 0)
(1.03697 -0.0463403 0)
(1.0303 -0.0519629 0)
(1.02286 -0.0569893 2.45935e-19)
(1.0145 -0.0611614 -2.51173e-19)
(1.00512 -0.0641696 0)
(0.994732 -0.0656307 -1.36752e-19)
(0.983427 -0.0650803 -2.94522e-19)
(0.971478 -0.0619735 0)
(0.959506 -0.0559527 -1.56276e-19)
(0.948311 -0.0467427 4.20619e-21)
(0.938883 -0.0343087 -5.194e-19)
(0.932358 -0.0191783 -1.81125e-19)
(0.929634 -0.00235383 -1.40052e-21)
(0.931171 0.0148492 -8.85697e-20)
(0.936795 0.0307684 1.05171e-20)
(0.945769 0.044391 1.55852e-19)
(0.956979 0.0548144 1.82638e-20)
(0.969306 0.0618887 4.25234e-21)
(0.981863 0.0658606 -7.50641e-19)
(0.99394 0.0670943 1.72954e-19)
(1.00506 0.0660283 2.71793e-20)
(1.01508 0.0632266 5.12101e-20)
(1.02399 0.05913 2.37846e-20)
(1.03186 0.0541025 2.17817e-20)
(1.03886 0.0484346 -2.57011e-19)
(1.04518 0.0423334 -2.39515e-19)
(1.05102 0.035969 -3.26738e-19)
(1.05662 0.0294483 -7.64911e-20)
(1.06219 0.0228467 0)
(1.06803 0.016219 1.82876e-20)
(1.07446 0.00960672 0)
(1.08188 0.00302426 -3.36961e-20)
(1.09084 -0.00352165 -3.26332e-20)
(1.10217 -0.0100389 -1.59741e-20)
(1.11721 -0.0165671 6.17898e-20)
(1.13742 -0.023079 0)
(1.15511 -0.028432 0)
(1.11439 -0.0276029 0)
(0.892333 -0.0158102 1.5832e-20)
(0.439327 -0.00269136 7.392e-20)
(0.239369 0.000375371 0)
(0.742003 0.00848732 0)
(1.05223 0.0205419 2.28457e-20)
(1.15364 0.0250718 4.29752e-20)
(1.15025 0.0213679 0)
(1.12842 0.014859 0)
(1.11143 0.00804357 9.32252e-20)
(1.09926 0.00122263 0)
(1.08995 -0.00567087 1.96534e-19)
(1.08237 -0.0126797 0)
(1.07587 -0.0198156 -4.0154e-19)
(1.07001 -0.0270776 -1.01196e-19)
(1.06445 -0.0344407 4.13013e-19)
(1.05888 -0.0418759 8.74274e-19)
(1.05302 -0.0493828 -2.15555e-19)
(1.04658 -0.0568227 5.57386e-20)
(1.03933 -0.064064 1.12023e-19)
(1.03096 -0.0709147 0)
(1.02122 -0.0770929 0)
(1.00984 -0.0821784 0)
(0.996679 -0.0856474 1.33558e-19)
(0.981725 -0.0868014 -1.48663e-19)
(0.965146 -0.0847098 -9.08642e-19)
(0.947586 -0.0783813 1.60099e-19)
(0.930342 -0.0671298 -3.50942e-19)
(0.915107 -0.050442 -7.4317e-19)
(0.904103 -0.0288202 2.92824e-19)
(0.899319 -0.00393544 -2.02269e-19)
(0.901754 0.0215165 -1.94942e-19)
(0.911063 0.0447504 -2.54409e-20)
(0.92559 0.0636407 -8.45835e-20)
(0.94303 0.0769493 -1.53434e-19)
(0.96136 0.0848909 -2.79696e-19)
(0.979128 0.08822 -5.06912e-19)
(0.9953 0.0877865 1.10677e-19)
(1.00953 0.0846384 -1.04975e-19)
(1.0218 0.0796194 7.31753e-20)
(1.03226 0.0733723 -2.65794e-19)
(1.04118 0.0663676 -8.53181e-20)
(1.04883 0.0589468 -7.7219e-20)
(1.0555 0.0513398 1.52572e-19)
(1.06147 0.0436884 0)
(1.06707 0.0360957 -5.2372e-20)
(1.07257 0.0286196 0)
(1.0783 0.0212941 0)
(1.08459 0.0141324 3.26389e-20)
(1.09186 0.00713524 4.72433e-20)
(1.10068 0.000290451 2.94456e-20)
(1.11192 -0.00642761 2.84003e-20)
(1.12692 -0.0130607 2.73172e-20)
(1.14649 -0.0195172 0)
(1.15934 -0.0244223 -1.36787e-20)
(1.10539 -0.0231453 -2.68429e-20)
(0.873538 -0.0127628 6.16269e-20)
(0.429702 -0.00212947 -2.02006e-19)
(0.234657 0.00029393 0)
(0.72635 0.00674261 -2.75016e-20)
(1.03914 0.0168896 0)
(1.1536 0.0211963 0)
(1.15835 0.0179335 8.27251e-20)
(1.13845 0.0115427 8.58547e-20)
(1.12163 0.00459349 -4.42089e-20)
(1.10958 -0.00247398 0)
(1.10049 -0.00970668 4.57855e-20)
(1.09318 -0.0171612 -9.23161e-20)
(1.08697 -0.0248686 0)
(1.0814 -0.0328511 -9.41844e-20)
(1.07611 -0.0411225 -3.04954e-21)
(1.07078 -0.0497021 -7.31894e-20)
(1.06506 -0.0585882 4.80284e-20)
(1.05867 -0.0677091 -3.06981e-21)
(1.05125 -0.076986 2.12065e-19)
(1.04239 -0.0862607 0)
(1.03165 -0.0952745 4.50481e-19)
(1.01855 -0.103621 -9.1652e-22)
(1.00257 -0.110607 0)
(0.98334 -0.115295 -4.12081e-19)
(0.960732 -0.11628 -1.4849e-19)
(0.935022 -0.111539 6.47971e-19)
(0.90779 -0.0990291 5.48208e-21)
(0.882046 -0.0771005 0)
(0.86221 -0.0453734 2.07704e-19)
(0.853122 -0.00676957 -1.20266e-19)
(0.857341 0.0331008 1.09109e-19)
(0.873973 0.0683924 -4.06539e-19)
(0.89893 0.0946471 1.73265e-19)
(0.927062 0.110635 3.16002e-19)
(0.954723 0.117908 5.34987e-19)
(0.979539 0.118369 -1.14788e-19)
(1.00069 0.114215 -1.14571e-19)
(1.01824 0.107239 9.19996e-20)
(1.0326 0.0986438 -3.37143e-19)
(1.04427 0.08925 2.47057e-19)
(1.05373 0.0795662 7.61179e-20)
(1.06149 0.0698986 0)
(1.06802 0.0604453 9.67957e-20)
(1.07375 0.0513044 -2.86127e-20)
(1.07901 0.042517 0)
(1.08416 0.0340929 -5.88658e-20)
(1.08953 0.0260201 -5.95592e-20)
(1.09546 0.0182874 5.63027e-20)
(1.10239 0.0108621 -1.40734e-19)
(1.11094 0.0037094 -5.53099e-20)
(1.12195 -0.00321807 2.61916e-20)
(1.13673 -0.00996431 2.52258e-20)
(1.15527 -0.0163617 -1.21291e-20)
(1.16278 -0.020878 -3.58027e-20)
(1.09672 -0.0193829 5.94508e-21)
(0.857341 -0.0103553 -6.96127e-21)
(0.421472 -0.00173281 0)
(0.230932 0.000234213 0)
(0.713536 0.0054392 0)
(1.02766 0.0139827 -4.17795e-20)
(1.15321 0.0179327 0)
(1.16603 0.0149897 -3.89144e-20)
(1.14854 0.00871563 3.99812e-20)
(1.13213 0.00165166 8.21841e-20)
(1.12034 -0.00564196 0)
(1.11161 -0.0131932 1.6885e-19)
(1.10473 -0.0210728 0)
(1.09901 -0.0293365 -3.46385e-19)
(1.09398 -0.0380348 -1.74773e-19)
(1.08928 -0.0472247 -5.50547e-21)
(1.08455 -0.0569401 -1.80452e-19)
(1.07946 -0.0672881 1.7971e-19)
(1.07367 -0.0782544 1.85232e-19)
(1.06676 -0.0898677 -9.19134e-20)
(1.05821 -0.102098 -2.92713e-19)
(1.0474 -0.114836 -9.70515e-20)
(1.03349 -0.127793 2.1205e-19)
(1.01551 -0.140435 0)
(0.992298 -0.151672 -8.80848e-21)
(0.96263 -0.159598 2.76998e-19)
(0.925832 -0.16116 0)
(0.882289 -0.151289 0)
(0.836333 -0.124451 4.46162e-19)
(0.79729 -0.0767779 -8.64312e-21)
(0.778115 -0.0125224 5.03294e-21)
(0.786358 0.0551047 -5.32461e-19)
(0.819404 0.111581 4.57595e-19)
(0.865584 0.14743 3.79208e-19)
(0.912564 0.163274 6.25112e-19)
(0.95393 0.165025 4.27178e-19)
(0.987459 0.158068 2.19528e-19)
(1.01378 0.146653 0)
(1.03404 0.1333 0)
(1.04946 0.119429 1.85998e-19)
(1.06119 0.105762 1.97822e-21)
(1.07023 0.0927019 -6.93584e-20)
(1.07736 0.0804037 -5.58918e-20)
(1.08314 0.0689093 -1.10659e-19)
(1.08809 0.0581894 8.17184e-20)
(1.09258 0.0481833 0)
(1.097 0.0388282 2.63485e-20)
(1.1017 0.030053 -2.4905e-20)
(1.10703 0.0217891 0)
(1.11344 0.0139774 0)
(1.12152 0.00655139 -1.69414e-21)
(1.13217 -0.00055554 0)
(1.14658 -0.00739143 0)
(1.16372 -0.0137165 -2.10426e-22)
(1.16566 -0.017909 0)
(1.0888 -0.016363 -3.16063e-20)
(0.843693 -0.00853303 0)
(0.414316 -0.00140186 -4.57761e-20)
(0.227918 0.000214774 0)
(0.703001 0.00453527 6.27705e-21)
(1.01776 0.0117946 4.96454e-21)
(1.15276 0.0153507 0)
(1.17336 0.012639 4.54931e-21)
(1.15862 0.00648675 0)
(1.14286 -0.000652994 0)
(1.13146 -0.00812448 0)
(1.12323 -0.0159312 0)
(1.11696 -0.0241577 0)
(1.11194 -0.0328819 0)
(1.10771 -0.042184 0)
(1.10391 -0.0521512 0)
(1.1002 -0.0629357 2.40893e-19)
(1.09627 -0.074657 -8.16972e-20)
(1.09177 -0.0874226 -1.6479e-19)
(1.08627 -0.101405 -1.64714e-19)
(1.07924 -0.116796 3.61731e-21)
(1.0699 -0.133792 -9.52701e-20)
(1.05721 -0.15254 -2.00934e-21)
(1.03964 -0.17302 4.01265e-19)
(1.01496 -0.194798 -2.38221e-19)
(0.979973 -0.216331 0)
(0.930705 -0.234018 2.75536e-19)
(0.862951 -0.239511 -1.47368e-18)
(0.777028 -0.216113 9.1835e-19)
(0.691536 -0.144827 5.80976e-19)
(0.645485 -0.0264528 2.25963e-18)
(0.663948 0.102966 0)
(0.738952 0.199401 9.91443e-19)
(0.831578 0.24232 -1.34958e-18)
(0.910773 0.245582 -3.93463e-19)
(0.969451 0.229737 -1.07145e-19)
(1.01103 0.207091 -5.4869e-19)
(1.03997 0.183212 3.71538e-21)
(1.0601 0.160423 4.19449e-19)
(1.07419 0.139633 -3.42823e-20)
(1.08417 0.120926 1.62665e-19)
(1.09137 0.104216 5.15246e-20)
(1.09671 0.0892385 9.19081e-20)
(1.10088 0.0757683 0)
(1.10437 0.0635923 2.32501e-20)
(1.10761 0.0525106 3.69213e-20)
(1.11097 0.0423567 3.91831e-20)
(1.11471 0.0330055 -2.14986e-20)
(1.11922 0.0243328 7.16071e-20)
(1.12492 0.0162362 -1.85222e-20)
(1.13242 0.0086175 -8.40015e-20)
(1.14259 0.00140548 -9.33902e-21)
(1.15646 -0.00546141 -1.94047e-20)
(1.17189 -0.0116688 -1.81505e-20)
(1.16811 -0.0155619 9.79094e-21)
(1.08153 -0.0140442 9.82284e-21)
(0.831981 -0.0072414 7.56878e-22)
(0.408273 -0.00122398 2.13916e-20)
(0.225073 0.0002544 1.33214e-19)
(0.693903 0.00401963 -1.89862e-19)
(1.00903 0.0103053 1.44534e-22)
(1.15229 0.0134922 6.83621e-20)
(1.18037 0.0109563 -6.75151e-20)
(1.16866 0.00495048 -6.87801e-20)
(1.15375 -0.00219454 0)
(1.14285 -0.00975473 9.04809e-23)
(1.13522 -0.0177102 -3.53133e-20)
(1.12969 -0.0261556 1.76907e-20)
(1.12555 -0.0351881 -1.76544e-20)
(1.12234 -0.0449093 -1.75645e-20)
(1.11974 -0.055451 8.87926e-21)
(1.11744 -0.0670078 3.41774e-20)
(1.1152 -0.0797554 5.55692e-20)
(1.11272 -0.0939252 1.08892e-19)
(1.10966 -0.109856 4.13849e-19)
(1.10559 -0.127979 7.25878e-20)
(1.09982 -0.148882 0)
(1.09138 -0.173421 0)
(1.07877 -0.202632 -1.45092e-19)
(1.05917 -0.237915 2.94754e-20)
(1.02766 -0.280767 -5.11184e-19)
(0.975105 -0.33172 2.22228e-19)
(0.883655 -0.386262 -2.84343e-19)
(0.723296 -0.408604 0)
(0.509681 -0.316098 3.79565e-18)
(0.383668 -0.0650248 -1.20866e-18)
(0.431891 0.226417 -5.12479e-18)
(0.634184 0.401643 1.97342e-18)
(0.828056 0.417558 0)
(0.952192 0.36507 -7.25974e-19)
(1.02136 0.308102 2.26651e-19)
(1.06114 0.258209 1.84548e-19)
(1.08471 0.216995 8.61743e-20)
(1.099 0.183222 7.66618e-20)
(1.10783 0.155299 1.1073e-19)
(1.11344 0.131861 0)
(1.11692 0.11197 -2.51714e-20)
(1.11921 0.0948316 1.97425e-19)
(1.12092 0.0798702 0)
(1.12234 0.066657 -1.39887e-21)
(1.12386 0.0548661 -7.29e-21)
(1.12575 0.0442332 -2.44683e-20)
(1.12829 0.0345537 -8.00814e-21)
(1.13179 0.0256734 1.51193e-20)
(1.13664 0.0174551 -8.07716e-21)
(1.14343 0.00978505 -8.51676e-21)
(1.15302 0.00256491 -7.99673e-22)
(1.1662 -0.0042481 6.35142e-21)
(1.17969 -0.010288 5.52203e-21)
(1.17026 -0.0139023 -1.13534e-20)
(1.07511 -0.0124387 -1.64435e-20)
(0.822046 -0.00643903 -9.44557e-21)
(0.4031 -0.00116468 -1.76096e-20)
(0.217801 0.000337673 -1.98738e-18)
(0.682794 0.00384259 0)
(0.999654 0.00938064 -5.51332e-19)
(1.15133 0.0122899 5.0022e-19)
(1.18705 0.00996314 4.93462e-19)
(1.17863 0.00418337 0)
(1.16469 -0.00285954 5.09286e-19)
(1.15435 -0.0103868 0)
(1.14739 -0.0183515 0)
(1.14269 -0.026848 2.54484e-19)
(1.13954 -0.0359816 0)
(1.1375 -0.0458707 -2.44244e-19)
(1.13628 -0.0566662 -7.87668e-21)
(1.13566 -0.0685764 3.02822e-20)
(1.13548 -0.0818126 4.47926e-20)
(1.13556 -0.0966765 4.37094e-20)
(1.13574 -0.113588 2.74109e-20)
(1.13584 -0.133137 -2.12829e-21)
(1.13564 -0.156185 -5.4426e-20)
(1.13483 -0.184091 4.6413e-20)
(1.1329 -0.218985 -2.24078e-19)
(1.12868 -0.264528 3.02204e-20)
(1.12013 -0.327382 0)
(1.10286 -0.42373 0)
(1.04373 -0.572572 6.92444e-21)
(0.79611 -0.65763 0)
(0.206428 -0.353882 7.10466e-17)
(0.359519 0.455811 -3.3424e-20)
(0.909423 0.665001 3.44336e-20)
(1.11141 0.495381 9.04763e-20)
(1.13481 0.369583 -2.24182e-20)
(1.1451 0.290004 2.00147e-20)
(1.14903 0.234486 7.05066e-20)
(1.14973 0.19325 -9.76669e-21)
(1.14881 0.16109 -1.05886e-21)
(1.14726 0.135209 7.0065e-21)
(1.14544 0.11382 -1.85561e-22)
(1.14367 0.0957782 -1.71159e-20)
(1.14216 0.080275 3.13969e-21)
(1.14108 0.0667525 -9.99246e-21)
(1.14058 0.0548027 -5.94359e-21)
(1.14083 0.0441125 -5.2525e-22)
(1.14202 0.0344473 -1.82535e-21)