/*--------------------------------*- C++ -*----------------------------------*\
  =========                 |
  \\      /  F ield         | OpenFOAM: The Open Source CFD Toolbox
   \\    /   O peration     | Website:  https://openfoam.org
    \\  /    A nd           | Version:  7
     \\/     M anipulation  |
\*---------------------------------------------------------------------------*/
FoamFile
{
    version     2.0;
    format      ascii;
    class       volScalarField;
    location    "84";
    object      k;
}
// * * * * * * * * * * * * * * * * * * * * * * * * * * * * * * * * * * * * * //

dimensions      [0 2 -2 0 0 0 0];

internalField   nonuniform List<scalar> 
12842
(
0.00568129
0.00507351
0.00473816
0.00446859
0.00430413
0.00416341
0.00409414
0.00402665
0.0039995
0.00396894
0.00397292
0.00399348
0.00404481
0.00412757
0.00419316
0.00426238
0.00432862
0.0043622
0.00440807
0.00442657
0.00444452
0.0044639
0.00447207
0.00565176
0.00502608
0.00467662
0.00443814
0.00429298
0.00415674
0.00408694
0.00402007
0.00399272
0.00396545
0.00397051
0.00399419
0.00405001
0.00413828
0.00419936
0.00427581
0.00433812
0.00436757
0.00440888
0.00443201
0.00444953
0.00445904
0.00446689
0.00559258
0.00495411
0.00462177
0.0043834
0.00424706
0.00412257
0.00405845
0.00399737
0.00397295
0.0039559
0.0039664
0.00399857
0.0040679
0.00416637
0.00421784
0.0042832
0.0043544
0.00437966
0.00441101
0.00443251
0.00444525
0.00446413
0.00446703
0.00554922
0.00488158
0.00455191
0.0043335
0.00421728
0.0041052
0.00404586
0.00398756
0.00396426
0.00395162
0.00396412
0.00400126
0.00407717
0.00418994
0.00424569
0.00430599
0.00436955
0.00439026
0.00441391
0.00444129
0.00444407
0.00445421
0.00445988
0.00547493
0.00481653
0.00449114
0.0042815
0.00417444
0.00407063
0.00401732
0.00396683
0.00394709
0.00394375
0.00396172
0.00400952
0.00410354
0.00421343
0.00426219
0.00431836
0.00438269
0.00441023
0.00442156
0.00444335
0.0044439
0.00445535
0.00446658
0.00541375
0.00473926
0.00442941
0.00423498
0.00413801
0.0040475
0.00400415
0.00395459
0.00393775
0.00394008
0.00396061
0.00401387
0.00412287
0.00423962
0.00428283
0.00433874
0.00439005
0.00442247
0.00444118
0.00444665
0.00444844
0.0044545
0.00445983
0.00534687
0.00468175
0.00437367
0.00419299
0.00410659
0.00402127
0.00398034
0.00393868
0.00392492
0.00393331
0.00396026
0.00402543
0.00415308
0.00426401
0.00430802
0.00435661
0.00440752
0.00443156
0.00445129
0.004459
0.00446114
0.00445974
0.00446036
0.00527589
0.0046158
0.00432256
0.00415231
0.00407312
0.00399962
0.00396688
0.0039265
0.00391811
0.00392909
0.00396012
0.00402969
0.00417471
0.004287
0.0043226
0.00437268
0.00441642
0.00445178
0.00447176
0.00447839
0.00447666
0.00447092
0.00446886
0.00521685
0.00456539
0.00427717
0.00412312
0.00405033
0.00398139
0.00395105
0.00391544
0.00390957
0.00392471
0.00396286
0.00404366
0.00420707
0.00430853
0.0043405
0.00438873
0.00443048
0.00446172
0.00448583
0.00448895
0.00448694
0.00447725
0.00447467
0.00513336
0.00450435
0.00423255
0.0040902
0.00402508
0.00396499
0.00393967
0.0039067
0.00390581
0.0039227
0.00396442
0.00405006
0.00422005
0.004328
0.0043601
0.00439998
0.00444435
0.00447297
0.00449858
0.00449897
0.00449626
0.00448428
0.00448036
0.00507005
0.00445353
0.00419338
0.00406826
0.00400637
0.00395249
0.00392835
0.00389874
0.00390045
0.0039203
0.00396762
0.00406288
0.00424407
0.0043463
0.00437545
0.00441079
0.00445564
0.00448228
0.00451053
0.00450623
0.00450253
0.0044893
0.00448515
0.00498821
0.00440385
0.00415552
0.00404011
0.00398466
0.00393821
0.00391769
0.00389194
0.00389766
0.00391893
0.00396921
0.00407032
0.00425632
0.0043599
0.00438497
0.00442302
0.00446376
0.00449617
0.00451834
0.00451439
0.00451364
0.00449958
0.00449413
0.00492496
0.00435506
0.00412321
0.00402138
0.00396774
0.00392791
0.00390744
0.00388574
0.00389336
0.00391749
0.00397301
0.00408366
0.00427916
0.00437791
0.00441081
0.00443867
0.00448604
0.00450454
0.00453564
0.00452128
0.00452232
0.00450805
0.00450233
0.00485042
0.00431683
0.00409232
0.00399827
0.00394941
0.00391619
0.0038982
0.00388086
0.00389124
0.00391619
0.00397546
0.00409437
0.00429499
0.00439777
0.00442431
0.00446
0.00449857
0.00451845
0.00456159
0.00453077
0.0045383
0.00452054
0.00451949
0.00478976
0.00427199
0.00406713
0.00398072
0.00393396
0.00390671
0.00388863
0.00387648
0.00388761
0.00391388
0.00397912
0.00411165
0.00431581
0.00440999
0.00443662
0.00448329
0.00451267
0.00453429
0.00456736
0.00453784
0.00454844
0.0045377
0.00453941
0.0047329
0.00424305
0.00404263
0.00396153
0.00391924
0.0038969
0.00388087
0.00387318
0.00388571
0.00391413
0.00398281
0.00412602
0.00433964
0.00443226
0.00443936
0.00448803
0.00452007
0.00454376
0.00456132
0.00455353
0.00456897
0.00455766
0.00456564
0.00468526
0.00420464
0.00402297
0.00394491
0.00390504
0.00388774
0.00387248
0.00386983
0.00388225
0.00391313
0.00398695
0.00414543
0.00435824
0.00445201
0.00446183
0.00448398
0.00452922
0.00456407
0.00456944
0.00456838
0.00458683
0.00458659
0.00462403
0.00464104
0.00418144
0.0040032
0.00392813
0.00389345
0.00387853
0.00386627
0.0038674
0.00388035
0.00391465
0.00399109
0.00416895
0.00437995
0.00446327
0.00446419
0.00448733
0.00453463
0.00459132
0.00458053
0.00459333
0.00463017
0.00465999
0.00471187
0.00460387
0.00415122
0.00398719
0.00391308
0.00388077
0.00386961
0.00385927
0.0038638
0.00387706
0.00391208
0.00399783
0.00418334
0.00440466
0.00449824
0.00446104
0.00450019
0.00454159
0.00459821
0.00460696
0.00464093
0.00468105
0.00473982
0.00481403
0.00456748
0.00413099
0.00396998
0.00389841
0.00387104
0.00386083
0.00385418
0.00386133
0.00387518
0.00391336
0.00400503
0.00421197
0.00442337
0.0045063
0.00446215
0.0045156
0.00455341
0.0046126
0.00464625
0.00469422
0.00478607
0.00491213
0.00509876
0.00453913
0.00410844
0.00395619
0.00388536
0.00385996
0.0038522
0.0038481
0.00385713
0.00387242
0.00391206
0.00401254
0.00423992
0.00444134
0.00451933
0.00447293
0.00454195
0.00458253
0.0046375
0.00470644
0.00482184
0.00496389
0.00517242
0.00526772
0.00450863
0.00408968
0.00394016
0.0038728
0.0038511
0.00384423
0.00384327
0.00385376
0.00387039
0.00391278
0.00402309
0.00425695
0.00446242
0.0045283
0.00450686
0.00456793
0.0046126
0.00471542
0.00481298
0.00495579
0.00518316
0.00533917
0.00556013
0.00448613
0.00407264
0.00392762
0.00386218
0.00384083
0.00383622
0.00383785
0.00384978
0.00386846
0.00391253
0.00404178
0.00429104
0.00450043
0.00452919
0.00453551
0.00464705
0.00471175
0.00480893
0.00493868
0.00516199
0.00537064
0.00579196
0.00612239
0.00446394
0.00405903
0.0039163
0.0038538
0.0038348
0.0038305
0.00383381
0.0038464
0.00386681
0.0039187
0.00406498
0.00433723
0.00451266
0.00455457
0.00460897
0.00469437
0.00477387
0.00489951
0.00509576
0.00535866
0.00589901
0.00628602
0.0065442
0.00445245
0.00404928
0.00390927
0.00384984
0.00382951
0.00382667
0.0038314
0.00384456
0.00386551
0.00391561
0.00406815
0.0043425
0.00453835
0.00457721
0.00466548
0.00483725
0.00493384
0.00507792
0.00529039
0.00585169
0.00630661
0.00669308
0.0071704
0.00443462
0.00403988
0.00390209
0.00384533
0.00382622
0.00382355
0.00382858
0.00384282
0.00386473
0.00391937
0.00406512
0.00433719
0.0045476
0.00465446
0.00478142
0.00491396
0.0050342
0.00524222
0.00571887
0.00620177
0.00682968
0.00775234
0.0103563
0.00442399
0.00403024
0.00389578
0.00384184
0.00382101
0.00381978
0.00382649
0.00384167
0.00386343
0.00391897
0.0040749
0.00436079
0.00459859
0.00472525
0.00487183
0.00510706
0.00527406
0.00557975
0.00600416
0.00675925
0.00906652
0.0174856
0.0465568
0.00440845
0.00402127
0.00388939
0.00383784
0.00381815
0.00381718
0.00382391
0.00384069
0.00386235
0.00392277
0.00408886
0.0043953
0.00468205
0.00483495
0.00502573
0.00522363
0.00543743
0.00583929
0.00678457
0.0115409
0.042405
0.135207
0.326112
0.00439796
0.00401204
0.00388414
0.00383446
0.00381304
0.00381292
0.00382207
0.00383954
0.00386215
0.0039299
0.0041311
0.00447835
0.00477436
0.00497018
0.00515636
0.00545981
0.00574372
0.00647631
0.0111335
0.0378642
0.127587
0.328533
0.540965
0.00438457
0.00400349
0.00387866
0.00383023
0.00380992
0.00381054
0.00381999
0.00383838
0.0038629
0.00395519
0.00417861
0.00455464
0.00490036
0.00507212
0.00532713
0.0056127
0.0060585
0.00818777
0.019283
0.0670489
0.214263
0.376766
0.570872
0.00437418
0.00399488
0.0038747
0.00382677
0.00380523
0.00380577
0.00381825
0.00383748
0.00386664
0.00398396
0.0042527
0.00466578
0.00502322
0.00527158
0.00552238
0.00590136
0.0066473
0.0100179
0.0318021
0.119886
0.242069
0.401711
0.598214
0.00436228
0.00398705
0.00386993
0.00382232
0.00380148
0.00380265
0.00381587
0.00383516
0.00387971
0.00403201
0.00432951
0.00477936
0.00517615
0.00538181
0.00567902
0.00614296
0.00758397
0.0151361
0.0557805
0.139422
0.272393
0.411433
0.599962
0.00435208
0.00397861
0.00386681
0.00381849
0.00379685
0.00379854
0.00381406
0.00383299
0.00389862
0.00407994
0.00442593
0.00491673
0.00533419
0.00560852
0.0059504
0.00647654
0.0083769
0.0214559
0.065792
0.171347
0.282074
0.476462
0.684374
0.00434135
0.00397146
0.00386289
0.00381383
0.00379297
0.00379358
0.00381107
0.0038345
0.00392957
0.00414852
0.00452921
0.00506216
0.00549683
0.00576415
0.00611107
0.00676117
0.00941561
0.0254762
0.0928667
0.184207
0.347339
0.497739
0.791318
0.00433136
0.00396318
0.00386022
0.00380986
0.00378821
0.00378933
0.00380692
0.00384045
0.00396474
0.00421623
0.00464864
0.00522315
0.00569242
0.00598004
0.00638651
0.0071449
0.0104551
0.0358679
0.0937531
0.209004
0.359274
0.568938
0.900066
0.00432127
0.00395592
0.00385652
0.00380529
0.00378392
0.00378542
0.00380738
0.00385844
0.00401639
0.00430504
0.00477715
0.00539417
0.00585963
0.0062015
0.00661465
0.00737833
0.011164
0.0291168
0.0857594
0.209081
0.368456
0.657031
1.00398
0.00431217
0.0039474
0.003854
0.00380065
0.00377875
0.00378008
0.00381338
0.00388341
0.00407037
0.00439178
0.00491549
0.005573
0.00607854
0.00639241
0.00683349
0.007686
0.0113906
0.0368652
0.0874464
0.202849
0.406919
0.742484
1.04952
0.0043016
0.00393975
0.00385053
0.00379504
0.00377535
0.00377854
0.00383287
0.00392235
0.00414325
0.00450079
0.0050694
0.00576161
0.00625557
0.00666714
0.00714247
0.00800059
0.012217
0.0407914
0.0972334
0.26613
0.604774
0.948107
1.17728
0.00429414
0.00393045
0.00384703
0.00379056
0.00376922
0.00378014
0.00385899
0.00396874
0.00421618
0.00460405
0.00521736
0.00594791
0.00648134
0.00685148
0.00731704
0.0082154
0.0124482
0.0429632
0.138696
0.334577
0.593109
0.914961
1.12919
0.00428272
0.00392183
0.00384162
0.00378481
0.00376918
0.00379345
0.00389977
0.00403038
0.00430739
0.00473091
0.00539407
0.00615018
0.00666717
0.00711971
0.00764067
0.00854576
0.0124456
0.0444192
0.137093
0.323888
0.626438
0.932231
1.12099
0.00427644
0.00391146
0.00383805
0.00377789
0.00376622
0.00381708
0.00394645
0.00409931
0.00439716
0.00484622
0.00554209
0.0063248
0.00688317
0.00736527
0.00787049
0.00874073
0.0133967
0.0360433
0.135954
0.312362
0.536543
0.799536
0.998825
0.00426444
0.00390265
0.00383029
0.00377677
0.00377678
0.0038532
0.00400923
0.00418089
0.00450177
0.00498518
0.00573193
0.00654254
0.00709161
0.00754909
0.00808494
0.00903079
0.0124468
0.0302561
0.101891
0.257699
0.53792
0.807019
1.11131
0.00425838
0.00389099
0.00382315
0.00378476
0.00379767
0.0038978
0.00407615
0.00426804
0.00460353
0.00510644
0.00587485
0.00669177
0.00726394
0.00787257
0.00845221
0.00933345
0.0122269
0.025903
0.106996
0.272043
0.548501
0.944139
1.25537
0.00424584
0.00388336
0.00382135
0.00380285
0.00383415
0.00395484
0.00415718
0.00436377
0.00471587
0.00524981
0.00606397
0.00691232
0.0075102
0.00803788
0.00863384
0.00967488
0.0126925
0.0319822
0.108427
0.27957
0.524831
0.758028
0.784636
0.00423942
0.00387197
0.00382928
0.00383099
0.00387702
0.00402069
0.00423943
0.00446214
0.00482283
0.00537014
0.00619705
0.00704341
0.00764535
0.00832941
0.00909406
0.0105887
0.0136251
0.0282061
0.103497
0.274468
0.539685
0.704403
0.731167
0.00422682
0.00386624
0.00384726
0.00386783
0.00393349
0.00409676
0.00433226
0.00456542
0.00493685
0.00550982
0.0063761
0.00724769
0.00789888
0.00861541
0.00940429
0.0114724
0.015014
0.0266359
0.0858903
0.282539
0.480407
0.672307
0.818821
0.00421935
0.00385774
0.00387515
0.00391395
0.00399826
0.0041792
0.00442353
0.00466766
0.00504252
0.00562363
0.00649238
0.0073631
0.0080317
0.00887704
0.0103318
0.0134438
0.0180379
0.0290171
0.0791942
0.231084
0.442654
0.689801
0.644871
0.00420965
0.00385839
0.00391205
0.00397127
0.00407318
0.00426934
0.00452178
0.00477232
0.00515245
0.00575267
0.00665653
0.00755449
0.00830883
0.00946159
0.0112115
0.0159892
0.0215197
0.0318521
0.0770185
0.23798
0.576178
0.917992
0.451604
0.00419826
0.00385901
0.0039587
0.00403732
0.00415815
0.00436564
0.00462013
0.00487617
0.0052556
0.00585945
0.00675618
0.00765404
0.00847474
0.00992503
0.0133064
0.0191238
0.0249808
0.035604
0.0726542
0.208416
0.419509
0.854124
0.428342
0.00419309
0.0038732
0.00401958
0.00411703
0.0042525
0.00446952
0.00472396
0.00498226
0.00536081
0.00597451
0.00689476
0.00782382
0.0088128
0.0109821
0.0155954
0.0229089
0.0295675
0.0378723
0.0743048
0.183345
0.356119
0.34719
0.283451
0.00418479
0.00390156
0.00408651
0.0042005
0.00434991
0.00457214
0.00482247
0.00508021
0.00545358
0.00606471
0.00697283
0.00790906
0.00906017
0.0120665
0.0190692
0.0267297
0.0330011
0.0409767
0.0658917
0.159477
0.359606
0.292486
0.364414
0.00417937
0.00394454
0.00416264
0.00429022
0.00444871
0.00467313
0.00491703
0.00517207
0.00553981
0.00615151
0.00706873
0.00804874
0.00956103
0.0139673
0.0227548
0.0302471
0.036097
0.0443707
0.0701899
0.134675
0.291869
0.332872
0.464712
0.00418038
0.00399351
0.00424149
0.00438049
0.00454567
0.00477017
0.00500581
0.00525552
0.00561533
0.00622044
0.00712675
0.00813483
0.0100073
0.0158811
0.0259979
0.0327374
0.0385606
0.0482803
0.0787723
0.120302
0.255477
0.418663
0.628561
0.00419214
0.00405543
0.00432574
0.00447415
0.00464249
0.00486369
0.00508962
0.00533256
0.00568468
0.00628585
0.00719673
0.00828068
0.0107968
0.0185893
0.0293468
0.0353021
0.0411668
0.0546061
0.0937109
0.121867
0.315636
0.575195
0.758517
0.00421813
0.00412371
0.00441034
0.00456584
0.00473425
0.00495112
0.00516703
0.00540135
0.00574447
0.00633792
0.00724458
0.00840378
0.0115863
0.0211238
0.0321883
0.0374387
0.0447599
0.0707008
0.121125
0.161811
0.433236
0.724839
0.84135
0.00425606
0.00420151
0.00449629
0.00465776
0.00482417
0.00503397
0.00523954
0.00546459
0.00579941
0.00638752
0.00730165
0.00859571
0.0127981
0.0242825
0.0351154
0.0399244
0.0503825
0.0926431
0.181682
0.251254
0.615329
0.845705
0.912781
0.00429714
0.0042799
0.00457563
0.00474027
0.00490168
0.00510373
0.00529988
0.00551529
0.00584192
0.00642419
0.00734842
0.00880101
0.0138811
0.0270211
0.0375724
0.0420564
0.0545804
0.102247
0.21362
0.366826
0.774971
0.942093
0.963427
0.00434425
0.00435856
0.00465076
0.00481789
0.00497443
0.00516773
0.0053554
0.00556165
0.00588026
0.00645747
0.00739821
0.00905388
0.0151
0.0299201
0.0402137
0.0444986
0.0582285
0.1075
0.225722
0.450518
0.848115
0.969576
0.951888
0.00439586
0.00444108
0.00472541
0.00489361
0.00504338
0.00522745
0.00540712
0.00560397
0.00591491
0.006488
0.0074516
0.00933798
0.0163784
0.0327473
0.042854
0.0470037
0.0610489
0.108637
0.229801
0.500882
0.904967
0.970556
0.891924
0.00445399
0.00452293
0.00479752
0.00496528
0.00510826
0.00528249
0.0054547
0.00564303
0.00594621
0.00651601
0.00750809
0.00965451
0.017668
0.0355286
0.04555
0.0494314
0.0630144
0.109784
0.232046
0.522163
0.933782
0.880438
0.763866
0.0045145
0.00460612
0.00486736
0.00503331
0.00516874
0.00533264
0.00549827
0.00567819
0.00597415
0.00654163
0.00756705
0.00998537
0.0189705
0.0381381
0.0481341
0.0516528
0.06405
0.109643
0.230773
0.527916
0.906966
0.822935
0.646272
0.00457758
0.00468419
0.00493329
0.00509591
0.00522351
0.00537821
0.00553735
0.00571059
0.00599916
0.00656509
0.00762765
0.0103274
0.0202101
0.0405247
0.05051
0.0536686
0.0645694
0.105596
0.218945
0.504097
0.891651
0.723416
0.506123
0.00464183
0.00476127
0.00499567
0.00515371
0.00527428
0.00541876
0.00557271
0.00573926
0.00602127
0.00658655
0.00768981
0.0106769
0.0214425
0.0426414
0.0526042
0.0553422
0.0644736
0.098268
0.193792
0.450876
0.805332
0.591046
0.367144
0.00470375
0.00483152
0.0050538
0.00520577
0.00531833
0.00545519
0.0056037
0.00576579
0.00604089
0.0066064
0.0077524
0.0110287
0.022575
0.044443
0.0542765
0.0564933
0.0639185
0.0902191
0.165139
0.36934
0.635594
0.413653
0.252735
0.00476762
0.00489823
0.00510743
0.005253
0.0053594
0.00548731
0.00563138
0.00578888
0.00605813
0.00662452
0.00781565
0.0113731
0.0235948
0.0457452
0.0555014
0.057641
0.0630693
0.0821164
0.136995
0.29473
0.432726
0.270718
0.170735
0.00482475
0.00495908
0.00515763
0.00529456
0.00539403
0.00551577
0.00565561
0.00581039
0.00607333
0.00664174
0.00787977
0.0117031
0.0244665
0.0468156
0.0563083
0.0585766
0.0618894
0.0747654
0.112669
0.226756
0.296719
0.18711
0.107359
0.00488481
0.00501466
0.00520277
0.00533264
0.0054265
0.00554095
0.00567689
0.00582886
0.0060867
0.0066579
0.00794116
0.011993
0.0251172
0.047306
0.0568376
0.0582295
0.0600694
0.068064
0.0929578
0.178169
0.201473
0.126232
0.0697928
0.00493696
0.00506548
0.00524549
0.00536509
0.00545408
0.00556348
0.00569568
0.00584628
0.00609856
0.00667358
0.00800337
0.0122328
0.0256134
0.0474788
0.0568982
0.0568189
0.0576516
0.0620365
0.0781294
0.135074
0.149959
0.0969348
0.0584338
0.00499062
0.0051121
0.00528361
0.00539578
0.00548016
0.00558303
0.00571266
0.00586096
0.00610914
0.00668905
0.00805409
0.0124207
0.0257796
0.0474103
0.0560968
0.0546196
0.0543156
0.056449
0.0661482
0.106021
0.111496
0.0760142
0.0539718
0.00503844
0.00515338
0.00531991
0.00542203
0.00550281
0.0056017
0.00572704
0.00587522
0.00611887
0.00670399
0.00810613
0.0125483
0.0258504
0.046598
0.0541872
0.0516784
0.0500271
0.0510634
0.0582368
0.083231
0.0887769
0.0587582
0.0511792
0.00508595
0.00519343
0.00535211
0.00544619
0.00552512
0.00561715
0.00574135
0.00588678
0.00612773
0.00671955
0.00813812
0.0126276
0.0256795
0.0448215
0.0515708
0.0481591
0.045737
0.0455486
0.051317
0.0665526
0.0667101
0.0515326
0.0475188
0.00512868
0.00522779
0.00538384
0.00546957
0.00554461
0.00563323
0.00575277
0.00589852
0.00613639
0.00673318
0.00817222
0.0126096
0.0250161
0.0424423
0.0481939
0.0441626
0.0411174
0.0403617
0.0444866
0.056449
0.0523018
0.0530719
0.047717
0.00517122
0.00526252
0.00541113
0.00548847
0.00556471
0.0056462
0.00576487
0.00590771
0.00614454
0.00674849
0.00820162
0.0124756
0.0240292
0.039465
0.0444057
0.0400652
0.0364944
0.0352439
0.0379457
0.044643
0.0496099
0.0510026
0.0499749
0.00521016
0.00529311
0.00543896
0.00551028
0.00558259
0.00566062
0.00577448
0.00591695
0.00615249
0.00676042
0.00819994
0.0122444
0.0227604
0.0361696
0.0401938
0.0356917
0.0321376
0.0308259
0.0326449
0.0371205
0.0411525
0.0456017
0.0505872
0.00524622
0.00532362
0.00546371
0.00552648
0.00560135
0.00567214
0.00578504
0.005924
0.00616047
0.00677277
0.00818183
0.011938
0.0213186
0.0325834
0.035978
0.0315459
0.0280636
0.0270382
0.0284663
0.0323541
0.0355019
0.0411247
0.04483
0.00528391
0.00535349
0.00548769
0.00554656
0.0056182
0.00568565
0.00579324
0.00593228
0.00616771
0.00678407
0.00815223
0.011583
0.0197433
0.0290751
0.0318398
0.0275539
0.02418
0.0236535
0.0250328
0.0287195
0.0322836
0.0383443
0.0442252
0.00531433
0.00537939
0.0055106
0.00556304
0.0056363
0.00569723
0.00580261
0.00593578
0.00617497
0.00679127
0.00811112
0.0111813
0.018164
0.0256252
0.0279239
0.024085
0.0215101
0.0214485
0.0229216
0.0270558
0.0313569
0.0374156
0.0483724
0.00534933
0.00540989
0.0055325
0.00557926
0.00565213
0.0057087
0.00580956
0.00593725
0.00618129
0.00679863
0.00806155
0.0107751
0.0166187
0.0225388
0.0245682
0.0209882
0.0192211
0.0194179
0.0212346
0.0265264
0.0317611
0.0374976
0.0506474
0.00537842
0.00543605
0.00555512
0.00559988
0.00567042
0.00572286
0.00581844
0.00594129
0.00618707
0.00680869
0.00800313
0.0103598
0.0151605
0.0197485
0.021358
0.0186303
0.0175181
0.0181517
0.020644
0.0268229
0.0327484
0.0441626
0.0581385
0.00540852
0.00546017
0.00557301
0.00561308
0.00568528
0.00573266
0.00582585
0.00594073
0.00619188
0.00680935
0.00793903
0.00997261
0.0139223
0.0174281
0.0188114
0.0165518
0.0161388
0.0175936
0.02066
0.0271838
0.0363436
0.051622
0.0732158
0.00544301
0.00548879
0.0055966
0.00563126
0.00570197
0.00574583
0.00582624
0.00594123
0.00619544
0.00681327
0.0078707
0.00960194
0.0127115
0.0154856
0.0167646
0.0154158
0.0160162
0.0173287
0.0206317
0.0280471
0.0425498
0.0689651
0.126384
0.0054467
0.00551291
0.00561944
0.00565015
0.00571865
0.00576107
0.0058323
0.00594159
0.00619797
0.00681526
0.00780182
0.00928494
0.0118463
0.0140645
0.0148253
0.0147965
0.0158448
0.0171871
0.021449
0.0384518
0.0676186
0.159278
0.339553
0.00545207
0.00553195
0.00562113
0.00566433
0.00573393
0.00576194
0.00583138
0.00594176
0.00619956
0.00680931
0.00772724
0.00897629
0.0110381
0.0127963
0.0140486
0.014349
0.0153973
0.0173852
0.0217544
0.0432526
0.134308
0.28675
0.500239
0.0054661
0.00554525
0.00562466
0.00567503
0.00573366
0.00577001
0.00583149
0.00594263
0.00620071
0.0068143
0.00767376
0.0087457
0.0104175
0.0120696
0.0138206
0.0140675
0.0152813
0.0174207
0.025607
0.054783
0.185294
0.436841
0.656298
0.00547441
0.0055414
0.00563096
0.00568495
0.00574143
0.005767
0.00583657
0.00594461
0.00620125
0.00681625
0.00759429
0.00849195
0.00998174
0.0118591
0.0132473
0.0141101
0.0152986
0.0176444
0.027555
0.0952689
0.276477
0.511231
0.732439
0.00547122
0.005541
0.00563448
0.00568206
0.00573756
0.00577098
0.00583424
0.00594547
0.00620176
0.00681735
0.00754964
0.00846034
0.00965378
0.0115368
0.0132952
0.0140922
0.015223
0.024524
0.0414256
0.154342
0.386805
0.566774
0.801146
0.0054759
0.00554509
0.00564266
0.00568574
0.00573902
0.00577797
0.00583666
0.00594255
0.00620194
0.00681833
0.00752241
0.00842033
0.00966118
0.0115839
0.0132626
0.014061
0.0154196
0.0306071
0.102957
0.26264
0.48293
0.653647
0.843891
0.00546721
0.00554568
0.00564848
0.0056875
0.00574298
0.00577417
0.00583238
0.00594227
0.00620298
0.00681425
0.00750236
0.00837246
0.00964499
0.011365
0.0132218
0.0139464
0.0157543
0.0630213
0.196522
0.379417
0.572741
0.712236
0.880665
0.00546728
0.00555272
0.00564174
0.00568067
0.00574454
0.00577379
0.00583159
0.00594112
0.00620312
0.00681555
0.00750146
0.00835279
0.00961419
0.0114844
0.01309
0.0142101
0.0166704
0.164252
0.3234
0.481578
0.634635
0.747596
0.88934
0.00547163
0.00554536
0.00564124
0.00568018
0.00573831
0.00577381
0.00583072
0.00594122
0.00620364
0.00681698
0.0074989
0.00827202
0.00962048
0.0113855
0.0133013
0.0142591
0.0194569
0.225361
0.448504
0.568331
0.674127
0.761516
0.892025
0.00546182
0.00554748
0.00564354
0.00568254
0.00573757
0.00577599
0.00583046
0.00594043
0.00620317
0.00681521
0.00749696
0.00825433
0.00956366
0.0112224
0.0133356
0.0142289
0.0220668
0.26019
0.514956
0.617396
0.69524
0.771905
0.880325
0.00546033
0.00554676
0.00563509
0.00567541
0.00573881
0.00576998
0.00582859
0.00594016
0.00620208
0.00680769
0.00749635
0.00822339
0.00956536
0.0113246
0.013229
0.0145682
0.0253864
0.257912
0.547349
0.638385
0.702077
0.774926
0.880826
0.00546802
0.00554679
0.00563422
0.00567475
0.00573176
0.00576915
0.00582793
0.00594156
0.00620295
0.00681556
0.0074947
0.00819045
0.00948625
0.0112924
0.0132261
0.0146317
0.029079
0.260946
0.549031
0.648991
0.713042
0.775409
0.871801
0.00545864
0.00554572
0.00563805
0.00567699
0.00573063
0.00577037
0.00582648
0.00594102
0.00620309
0.00681643
0.00749479
0.00823852
0.00957303
0.0112641
0.0132788
0.0145077
0.0329221
0.267484
0.554224
0.647985
0.712615
0.77931
0.858363
0.00545945
0.00554502
0.0056361
0.00566876
0.00573309
0.00576306
0.00582611
0.00593692
0.00620301
0.00681749
0.00745652
0.00825036
0.00947157
0.0113965
0.0132553
0.0145384
0.034535
0.293196
0.551623
0.635962
0.696899
0.761831
0.835581
0.00544542
0.00554077
0.00563374
0.0056781
0.00573451
0.00576167
0.00582852
0.0059377
0.00620554
0.00681393
0.00743496
0.00822343
0.0094405
0.0112789
0.0134962
0.0150501
0.0404022
0.315434
0.551783
0.620283
0.677512
0.741227
0.810358
0.00544623
0.00554765
0.00563324
0.00566961
0.00573187
0.00575685
0.00582865
0.00593306
0.00619585
0.00678711
0.00738714
0.00811979
0.00929823
0.0111264
0.0134369
0.0152162
0.0405283
0.298006
0.521353
0.579259
0.629409
0.689098
0.753984
0.00544124
0.00553688
0.0056242
0.00567382
0.00572621
0.00575294
0.00582074
0.00593044
0.00618611
0.00676321
0.00734651
0.00803785
0.00921687
0.0110476
0.0134887
0.0159582
0.0384664
0.256538
0.471751
0.535891
0.587958
0.641389
0.697164
0.00544276
0.00553851
0.00561943
0.00567209
0.00572122
0.00574754
0.00580673
0.00592485
0.00617498
0.00674119
0.00731281
0.00799921
0.00917336
0.0109825
0.0139866
0.0163161
0.0368774
0.211628
0.418826
0.485371
0.541553
0.593981
0.641508
0.00542332
0.00552047
0.00560747
0.0056647
0.005708
0.00574343
0.0058016
0.00591751
0.00616269
0.00671921
0.0072821
0.00795706
0.00914963
0.0110885
0.0140658
0.0178595
0.0334598
0.171949
0.36615
0.435413
0.499829
0.549191
0.589026
0.00541834
0.00551611
0.0055998
0.00565817
0.00568728
0.0057461
0.00580321
0.00590689
0.00614863
0.00669724
0.0072557
0.00792097
0.00913485
0.0112997
0.0157273
0.0186083
0.0322921
0.145616
0.311044
0.388736
0.46004
0.510343
0.544808
0.00542461
0.0055212
0.0055747
0.00564044
0.00568015
0.0057421
0.00579356
0.00589595
0.00613242
0.00667476
0.00722833
0.00788689
0.00909307
0.0115379
0.0158263
0.0209815
0.0385684
0.134051
0.285778
0.359162
0.429126
0.474672
0.506511
0.005418
0.00551558
0.00556684
0.00561161
0.00568225
0.00572118
0.00578499
0.00588598
0.00611475
0.00664935
0.00720003
0.00784968
0.00920131
0.0123096
0.0181443
0.0238797
0.0401339
0.109548
0.246471
0.334385
0.404783
0.445692
0.469962
0.00540637
0.00549263
0.00557013
0.00560125
0.00567011
0.00570634
0.00576734
0.00587022
0.00609272
0.00662242
0.0071702
0.00781382
0.00921961
0.0132142
0.0206965
0.02935
0.0488777
0.112642
0.227396
0.30756
0.379606
0.418324
0.43281
0.00538018
0.00547096
0.00555547
0.00560207
0.005654
0.00568514
0.00574341
0.0058506
0.00606963
0.00659168
0.00713381
0.00778524
0.00951644
0.0144394
0.0228823
0.0355615
0.0600718
0.121314
0.218604
0.27733
0.353789
0.389617
0.39465
0.00535418
0.00544011
0.00552924
0.00558878
0.00562673
0.00566155
0.00572492
0.0058255
0.00603949
0.00655541
0.00709295
0.00775307
0.0102859
0.0165679
0.028947
0.0485024
0.0752871
0.136902
0.199927
0.26491
0.333134
0.358824
0.354329
0.00531691
0.00541151
0.00548014
0.00555959
0.00560108
0.00564987
0.00569775
0.00579876
0.00600905
0.00651565
0.00704668
0.00771592
0.0103745
0.0190087
0.0331189
0.0612049
0.0888836
0.14813
0.197385
0.258932
0.314287
0.326862
0.315273
0.00528846
0.00538745
0.00545593
0.0055296
0.00557316
0.00562014
0.00566502
0.00576425
0.00596944
0.00646712
0.00698861
0.00768179
0.0104849
0.0221607
0.0424473
0.0797284
0.103496
0.159769
0.196609
0.237123
0.293805
0.297089
0.278144
0.00525503
0.00533987
0.00539866
0.00549357
0.0055376
0.00558028
0.00562975
0.00572864
0.00592792
0.00641383
0.00693136
0.00762596
0.0106985
0.0248595
0.0498046
0.0993617
0.116901
0.175847
0.210464
0.248163
0.27528
0.272026
0.255631
0.00521693
0.00529859
0.00540123
0.00544985
0.00549515
0.00553587
0.00558462
0.00568083
0.00587564
0.00634606
0.00685585
0.00757273
0.0111904
0.0283719
0.0663628
0.125555
0.1353
0.191756
0.217122
0.240713
0.263137
0.264389
0.252622
0.00515925
0.00523436
0.00536671
0.00539641
0.00544092
0.00548603
0.00552349
0.0056316
0.0058201
0.00627609
0.00678225
0.00750456
0.010755
0.0313302
0.0815235
0.128459
0.150384
0.182103
0.215289
0.249294
0.262121
0.246557
0.205998
0.00510411
0.00517276
0.00531928
0.00533546
0.00538779
0.00544042
0.00547689
0.00557362
0.00575333
0.00618774
0.00669177
0.00744958
0.0114565
0.0353971
0.102564
0.132703
0.172485
0.1964
0.226923
0.248949
0.227013
0.185698
0.164731
0.00504297
0.00510821
0.00525359
0.00526445
0.00532411
0.00538087
0.0054248
0.0055127
0.00567876
0.00609966
0.00659638
0.00737774
0.012476
0.0410623
0.106634
0.146505
0.186497
0.208492
0.220264
0.208444
0.179599
0.180535
0.155332
0.0049825
0.005064
0.00518418
0.00519904
0.00526089
0.0053183
0.00536574
0.00544058
0.00559747
0.00599241
0.00649128
0.0073052
0.0134716
0.0503027
0.113446
0.157888
0.191191
0.204734
0.192632
0.178552
0.186685
0.162578
0.111832
0.00490456
0.0050011
0.00509507
0.00511969
0.0051784
0.00523258
0.0052806
0.00535436
0.00549995
0.00588088
0.00636588
0.00721859
0.0143558
0.05892
0.123564
0.160058
0.195003
0.172674
0.168968
0.181449
0.162022
0.117311
0.0728931
0.00482243
0.00492212
0.0050039
0.00504101
0.00509445
0.00514451
0.0051928
0.00526133
0.00539992
0.00575483
0.00623564
0.00715821
0.0158971
0.0761303
0.131109
0.161213
0.163859
0.158784
0.170474
0.156412
0.121568
0.0830157
0.044665
0.0047155
0.0048142
0.00488771
0.00493544
0.00498248
0.00502707
0.00507337
0.00514136
0.00527179
0.0056088
0.00607667
0.00694206
0.0184567
0.0850854
0.145923
0.154378
0.153421
0.163732
0.149386
0.11874
0.0905165
0.058096
0.0233178
0.00460744
0.00470662
0.00477464
0.00483045
0.00487232
0.0049132
0.00495821
0.00502444
0.00514754
0.00545943
0.00592728
0.006902
0.022039
0.107384
0.141737
0.130503
0.146275
0.148462
0.117356
0.092457
0.0691369
0.0346977
0.0137389
0.00446922
0.0045673
0.00462928
0.00468848
0.00472505
0.00476139
0.0048036
0.00486625
0.00498205
0.00527346
0.00572621
0.00714255
0.0296063
0.110389
0.140017
0.133667
0.151803
0.120514
0.0906569
0.0741011
0.0482969
0.0168604
0.00938253
0.00433816
0.00443853
0.00449514
0.00455573
0.00458866
0.00462329
0.00466373
0.0047246
0.00483239
0.00508856
0.00556134
0.0078675
0.039458
0.110182
0.126909
0.138007
0.142519
0.0968338
0.0767819
0.0596136
0.0258842
0.0100257
0.00725923
0.00416958
0.00426777
0.00431703
0.00437399
0.00440227
0.00443335
0.00446967
0.004525
0.00462393
0.0048884
0.00534361
0.00949472
0.0479594
0.107422
0.121054
0.137819
0.115204
0.0789242
0.0654479
0.0394099
0.0122891
0.00709197
0.00609075
0.00402253
0.00412307
0.00416466
0.0042191
0.00424397
0.0042746
0.00430969
0.00436164
0.00445338
0.0046421
0.0052653
0.0121927
0.0634561
0.104763
0.11934
0.130421
0.0875386
0.0681649
0.0513264
0.0176092
0.00754337
0.00580284
0.0054106
0.00382421
0.00391644
0.00394913
0.00399478
0.0040143
0.00404103
0.00406991
0.00411511
0.00419756
0.00445268
0.00544019
0.0167011
0.0695942