/*--------------------------------*- C++ -*----------------------------------*\
  =========                 |
  \\      /  F ield         | OpenFOAM: The Open Source CFD Toolbox
   \\    /   O peration     | Website:  https://openfoam.org
    \\  /    A nd           | Version:  7
     \\/     M anipulation  |
\*---------------------------------------------------------------------------*/
FoamFile
{
    version     2.0;
    format      ascii;
    class       volScalarField;
    location    "84";
    object      nut;
}
// * * * * * * * * * * * * * * * * * * * * * * * * * * * * * * * * * * * * * //

dimensions      [0 2 -1 0 0 0 0];

internalField   nonuniform List<scalar> 
12842
(
0.00181066
0.00178995
0.00179104
0.00176691
0.0017675
0.00175785
0.00176768
0.00176068
0.00176646
0.00176122
0.00177036
0.0017775
0.00179259
0.00108556
0.000553043
0.000324256
0.000216129
0.000155908
0.000120168
9.59152e-05
7.93993e-05
6.7758e-05
6.00015e-05
0.0018124
0.00178925
0.00178971
0.00177732
0.00177498
0.00175908
0.00176672
0.00175991
0.00176533
0.00176147
0.00177005
0.00177836
0.00179419
0.00106521
0.000546779
0.000322179
0.000215118
0.000155884
0.000120031
9.59616e-05
7.94846e-05
6.79393e-05
6.00305e-05
0.00180795
0.00178247
0.00178565
0.00176605
0.00177076
0.00175851
0.00176503
0.00175874
0.00176292
0.00176234
0.00177016
0.00178071
0.0018003
0.00103656
0.000537672
0.000318866
0.000214021
0.000155057
0.00011954
9.55521e-05
7.9095e-05
6.80934e-05
5.99413e-05
0.00181179
0.00178293
0.00178469
0.00177192
0.00177352
0.00176026
0.00176518
0.00175849
0.00176242
0.00176323
0.00177012
0.00178193
0.00180266
0.00100262
0.0005264
0.000315023
0.000212806
0.000154074
0.000118643
9.51641e-05
7.86072e-05
6.7907e-05
5.96586e-05
0.00180543
0.00178206
0.00178007
0.00176329
0.00177127
0.00175825
0.00176372
0.00175831
0.00176028
0.0017642
0.00177082
0.00178568
0.00181173
0.000975169
0.000518012
0.000312242
0.000211331
0.000153407
0.000117911
9.4596e-05
7.80979e-05
6.7855e-05
5.95315e-05
0.00180543
0.00178028
0.0017815
0.00176662
0.00176952
0.00175906
0.00176528
0.0017576
0.00176004
0.00176513
0.00177149
0.00178701
0.00181729
0.000952962
0.000510932
0.000310782
0.000211218
0.000152907
0.000117542
9.40577e-05
7.76589e-05
6.76908e-05
5.91116e-05
0.0018034
0.00177993
0.00177608
0.00176248
0.00177008
0.0017579
0.00176329
0.00175766
0.00175869
0.00176545
0.00177325
0.00179162
0.00182717
0.000955971
0.000518737
0.000316359
0.00021459
0.000154668
0.000118347
9.46473e-05
7.79681e-05
6.80662e-05
5.91062e-05
0.00179845
0.00177877
0.00177701
0.00176234
0.00176701
0.00175798
0.00176469
0.00175681
0.00175925
0.0017657
0.00177469
0.00179355
0.00183409
0.000934482
0.000511715
0.000315721
0.000214867
0.000154451
0.000117707
9.39198e-05
7.72029e-05
6.74945e-05
5.84489e-05
0.0018009
0.0017774
0.00177159
0.00176189
0.00176807
0.00175765
0.00176354
0.00175683
0.00175863
0.00176607
0.00177702
0.00179842
0.0018437
0.000919646
0.000512847
0.0003189
0.000217589
0.000156245
0.000118483
9.4205e-05
7.70509e-05
6.73447e-05
5.81705e-05
0.00179228
0.00177759
0.00177139
0.00176003
0.00176484
0.0017575
0.00176385
0.00175556
0.00175932
0.00176671
0.00177849
0.00180065
0.00184577
0.000942193
0.00052847
0.000331213
0.000226008
0.000161672
0.000121814
9.64367e-05
7.839e-05
6.84772e-05
5.87829e-05
0.00179701
0.00177446
0.00176618
0.00176131
0.00176566
0.00175799
0.00176301
0.00175532
0.00175927
0.00176738
0.00178082
0.00180529
0.0018495
0.000931736
0.000530181
0.000333634
0.000227764
0.000162845
0.000122137
9.6419e-05
7.80862e-05
6.82437e-05
5.83408e-05
0.00178828
0.00177608
0.00176595
0.00175913
0.00176225
0.00175789
0.00176243
0.0017543
0.00176016
0.00176819
0.0017819
0.00180749
0.00181588
0.000923868
0.00052935
0.000337499
0.00023117
0.000165111
0.000122899
9.67121e-05
7.79807e-05
6.81411e-05
5.789e-05
0.00179235
0.00177124
0.00176156
0.00176047
0.00176261
0.00175854
0.00176118
0.0017541
0.00176038
0.00176911
0.00178442
0.00181184
0.00178251
0.000914954
0.000533642
0.00034371
0.00023568
0.000167959
0.000124101
9.70761e-05
7.77915e-05
6.79641e-05
5.73885e-05
0.00178578
0.00177392
0.001762
0.0017589
0.00175981
0.0017587
0.00176013
0.00175391
0.00176142
0.0017698
0.00178552
0.00181461
0.00174633
0.000907014
0.000534809
0.000349957
0.000242134
0.00017224
0.000126435
9.79368e-05
7.78811e-05
6.78543e-05
5.70182e-05
0.00178753
0.00176812
0.00175891
0.00175902
0.00175946
0.001759
0.00175842
0.00175419
0.00176185
0.00177027
0.00178706
0.00182
0.00170849
0.000896579
0.000538992
0.000360169
0.000249246
0.000177123
0.000128415
9.86503e-05
7.80048e-05
6.75121e-05
5.67891e-05
0.00178406
0.00177117
0.00176035
0.00175806
0.00175794
0.00175905
0.00175743
0.00175497
0.00176286
0.00177156
0.00178874
0.00182445
0.00167348
0.000884848
0.000540289
0.000369513
0.000259763
0.000184685
0.000131964
0.000100396
7.90294e-05
6.71634e-05
5.67119e-05
0.00178349
0.00176586
0.00175834
0.00175703
0.00175708
0.00175878
0.00175594
0.00175572
0.00176325
0.00177269
0.00178958
0.00183109
0.00164277
0.000876998
0.000548832
0.000383063
0.000273617
0.000193348
0.000136055
0.000101742
7.96797e-05
6.66646e-05
5.71982e-05
0.00178211
0.00176835
0.0017603
0.00175626
0.00175665
0.00175824
0.00175556
0.00175706
0.00176416
0.00177452
0.00179124
0.00183983
0.00160795
0.000863381
0.000552611
0.000397044
0.000291885
0.000207489
0.000142703
0.000104314
8.11092e-05
6.67808e-05
5.75659e-05
0.00178035
0.00176497
0.00175896
0.001755
0.00175582
0.00175742
0.00175473
0.0017577
0.00176454
0.001775
0.00179476
0.00184396
0.00157762
0.000855179
0.000559096
0.000418712
0.000318359
0.000224423
0.000150296
0.000106997
8.18819e-05
6.68969e-05
5.83771e-05
0.00177919
0.00176611
0.00176042
0.00175449
0.00175573
0.00175664
0.00175501
0.00175901
0.0017654
0.00177664
0.00179787
0.00185336
0.00154668
0.000844155
0.00056055
0.000442025
0.000358964
0.000253537
0.000161859
0.000111414
8.43465e-05
6.9037e-05
6.03063e-05
0.00177787
0.00176512
0.00175947
0.00175371
0.00175521
0.00175554
0.00175459
0.00175923
0.00176607
0.00177752
0.0018008
0.00186332
0.00151068
0.000828799
0.000565133
0.000473778
0.000420594
0.000295424
0.000176047
0.000116925
8.7052e-05
7.14424e-05
6.1372e-05
0.00177631
0.00176458
0.0017598
0.00175379
0.00175502
0.00175506
0.00175505
0.00176009
0.00176675
0.00177875
0.0018041
0.0018657
0.00148339
0.000821387
0.000570462
0.000510964
0.000534754
0.000378709
0.000198297
0.000125186
9.25103e-05
7.4869e-05
6.28996e-05
0.00177546
0.00176537
0.00175911
0.00175374
0.00175459
0.00175416
0.00175481
0.00176016
0.00176773
0.0017798
0.00181197
0.00187637
0.00141077
0.000782414
0.00055944
0.000538288
0.000734985
0.00053471
0.000222245
0.000131945
9.55569e-05
8.01514e-05
6.97257e-05
0.00177402
0.00176396
0.00175852
0.0017544
0.00175463
0.00175383
0.00175493
0.00176057
0.00176832
0.00178254
0.00182028
0.00189075
0.00133709
0.000741974
0.00053559
0.000540363
0.00103386
0.000873924
0.000246049
0.000141643
0.000108442
9.97279e-05
9.07382e-05
0.00177452
0.00176464
0.00175813
0.00175524
0.0017543
0.00175373
0.0017548
0.00176076
0.00176847
0.00178121
0.00182061
0.00188951
0.00132895
0.000732488
0.0005344
0.000540727
0.00101518
0.000806149
0.00024339
0.000156894
0.000140149
0.00014324
0.000127917
0.00177259
0.00176332
0.00175755
0.00175593
0.00175452
0.00175362
0.00175463
0.00176116
0.00176873
0.00178306
0.00181807
0.00188201
0.00128838
0.00070543
0.000507921
0.000499724
0.000684579
0.000511908
0.000260342
0.000205283
0.000187519
0.000198546
0.000195475
0.00177359
0.00176363
0.00175738
0.00175666
0.00175416
0.00175363
0.00175444
0.00176148
0.00176859
0.00178281
0.00182056
0.00188888
0.00123746
0.000677228
0.000490079
0.000462815
0.000517187
0.000408077
0.000270334
0.000230214
0.000246909
0.000385973
0.000922369
0.00177218
0.00176243
0.00175689
0.00175725
0.0017544
0.00175352
0.00175423
0.00176204
0.00176855
0.00178448
0.00182523
0.00189982
0.00118403
0.000656393
0.000462121
0.000414405
0.000400265
0.000335927
0.000295681
0.000397193
0.00100095
0.00215101
0.00265093
0.00177297
0.00176246
0.00175719
0.00175767
0.00175396
0.00175314
0.0017541
0.00176216
0.00176875
0.00178811
0.00184229
0.00193151
0.00113745
0.000630009
0.000446204
0.000386733
0.000371996
0.000368251
0.000448722
0.000974697
0.0025241
0.00288923
0.0027816
0.00177207
0.00176147
0.0017568
0.00175767
0.00175385
0.00175293
0.00175408
0.0017624
0.00176958
0.00179896
0.00186075
0.00196163
0.00110156
0.000610017
0.000418345
0.00035276
0.000336335
0.000402373
0.000779208
0.00157863
0.00190752
0.00194567
0.00214767
0.00177236
0.00176146
0.00175775
0.00175774
0.00175342
0.00175214
0.001754
0.00176243
0.00177163
0.00181196
0.00189079
0.00200271
0.00106448
0.000585624
0.000404035
0.000337191
0.000355328
0.000545715
0.00113344
0.00167511
0.00165169
0.00171853
0.00208193
0.00177167
0.00176077
0.00175739
0.00175709
0.00175272
0.00175144
0.00175385
0.001762
0.0017783
0.00183398
0.00192301
0.00204106
0.00104264
0.000571643
0.000388018
0.000338552
0.000397704
0.000720562
0.00148205
0.00156895
0.00162208
0.00170507
0.00195968
0.00177145
0.00176062
0.00175874
0.00175684
0.00175212
0.00175081
0.00175385
0.00176158
0.00178726
0.00185481
0.0019664
0.0020968
0.00101599
0.000554603
0.000379188
0.000329837
0.000412242
0.00110624
0.00117715
0.00146221
0.00155603
0.00177623
0.00212319
0.00177086
0.00176021
0.00175851
0.00175562
0.00175121
0.0017492
0.00175366
0.00176314
0.00180213
0.00188575
0.0020086
0.00215712
0.00100692
0.000549078
0.000379786
0.000339592
0.000446948
0.00102777
0.0014425
0.00143107
0.00162057
0.00187046
0.00250505
0.00177023
0.00175989
0.00176012
0.00175533
0.00175021
0.00174853
0.001753
0.00176704
0.00181843
0.00191637
0.00205773
0.00221159
0.000996497
0.000546686
0.000372115
0.000319745
0.00044757
0.00118506
0.00108226
0.00141741
0.00169844
0.00214873
0.00303236
0.0017695
0.00175947
0.00175984
0.00175405
0.00174925
0.00174756
0.00175477
0.00177642
0.00184209
0.00195293
0.00209792
0.00222757
0.000998187
0.000548601
0.000373129
0.000312119
0.000502179
0.000740103
0.00098791
0.00144919
0.00173123
0.00254429
0.00352219
0.00176906
0.00175864
0.00176148
0.00175349
0.00174774
0.00174658
0.00175929
0.0017894
0.00186603
0.00198607
0.00213682
0.00224961
0.00101479
0.000555917
0.000360021
0.000289703
0.00046091
0.000918254
0.000997509
0.00138661
0.0019029
0.00279309
0.00375641
0.00176746
0.00175804
0.00176134
0.00175201
0.00174764
0.00174732
0.00176983
0.00180724
0.00189525
0.00201743
0.00216719
0.00230562
0.00102798
0.000560902
0.000359163
0.000295555
0.000630044
0.00112521
0.00122814
0.0018162
0.00275457
0.00360308
0.0042114
0.00176793
0.00175659
0.00176261
0.00175168
0.00174621
0.00174974
0.00178374
0.0018281
0.00192099
0.00204656
0.00219585
0.00233712
0.00106441
0.000574179
0.000349926
0.000287323
0.000561009
0.00109072
0.00202762
0.00233816
0.002701
0.00348721
0.00402886
0.00176525
0.00175527
0.00176174
0.00175079
0.00174786
0.00175735
0.00180244
0.00185185
0.00194884
0.00206956
0.00221477
0.00233618
0.00109627
0.000581488
0.000355009
0.000305954
0.000730208
0.00119579
0.00193754
0.00237227
0.00278339
0.00354213
0.00406801
0.00176635
0.00175348
0.00176323
0.00175001
0.0017484
0.00177034
0.00182334
0.00187489
0.00197167
0.00209115
0.00223286
0.00234994
0.00113611
0.000602352
0.000361901
0.000326611
0.000802171
0.00114505
0.0017898
0.00205502
0.00253623
0.00288582
0.0034457
0.00176328
0.00175172
0.00176182
0.00175172
0.00175507
0.00178752
0.00184645
0.00189764
0.00199329
0.00210433
0.00223755
0.002332
0.0012028
0.000622374
0.000377449
0.000348815
0.000867869
0.00083848
0.00131049
0.00174038
0.00243369
0.00281436
0.003703
0.00176409
0.00175001
0.00176236
0.0017579
0.00176705
0.00180689
0.00186757
0.00191841
0.0020088
0.00211583
0.00224695
0.00233475
0.0012339
0.000650417
0.000397854
0.000384453
0.000803669
0.000817454
0.00143585
0.00183187
0.00250735
0.00316993
0.00414488
0.00176132
0.00174869
0.00176378
0.00176859
0.00178374
0.00182897
0.00188803
0.00193623
0.00202111
0.0021193
0.00223877
0.00230678
0.0013386
0.000692202
0.000431146
0.000422105
0.000908729
0.00116267
0.00141452
0.0018714
0.00228928
0.00282194
0.00295159
0.00176146
0.00174774
0.00177145
0.00178433
0.00180315
0.00185004
0.00190554
0.00195063
0.0020277
0.00212081
0.00223999
0.00229933
0.00138207
0.000739942
0.000453914
0.000474984
0.000996783
0.00088958
0.0013507
0.00184389
0.00213641
0.00273501
0.00292944
0.0017596
0.00174734
0.00178147
0.00180223
0.0018233
0.00187176
0.00192033
0.00196111
0.00203059
0.00211662
0.00222387
0.00226696
0.00150374
0.000784883
0.000501003
0.000569128
0.00106648
0.000908606
0.00120446
0.00181937
0.0020633
0.00262862
0.00315101
0.00175971
0.00174796
0.00179753
0.00182345
0.00184404
0.0018905
0.00193108
0.00196791
0.00202928
0.00211071
0.0022192
0.00225347
0.00157146
0.000870681
0.000550586
0.000710729
0.00108695
0.000871747
0.00100703
0.00132653
0.00202556
0.00263837
0.00288542
0.00175961
0.00175074
0.00181572
0.00184462
0.00186168
0.00190785
0.00193876
0.00197125
0.00202493
0.00210149
0.00219816
0.00221941
0.00173213
0.000933504
0.00065072
0.00103427
0.00104882
0.000825692
0.000908028
0.00146399
0.00259663
0.00319837
0.00216894
0.00175911
0.00175522
0.00183823
0.00186724
0.00188149
0.00192216
0.00194338
0.00197196
0.00201845
0.0020914
0.0021904
0.00220219
0.00181455
0.00106018
0.00084894
0.00132048
0.000964919
0.000770814
0.00080196
0.00133946
0.00190292
0.00308266
0.00224406
0.00176177
0.00176338
0.00186358
0.0018874
0.00189598
0.00193375
0.00194498
0.00196979
0.00200938
0.00207894
0.0021678
0.00217033
0.00199796
0.0012354
0.00121286
0.00123301
0.000905584
0.000696876
0.000801054
0.00122598
0.00169642
0.00196541
0.00175293
0.00176308
0.00177869
0.00188753
0.00190566
0.00190897
0.0019409
0.00194332
0.00196486
0.00199879
0.00206573
0.00215509
0.00215349
0.00198927
0.00148841
0.0015756
0.0011111
0.000809441
0.00065141
0.000696745
0.00124494
0.00179312
0.00168953
0.0022245
0.00176561
0.00179861
0.00190739
0.00191833
0.00191572
0.00194348
0.00193884
0.00195775
0.00198716
0.00205219
0.00213461
0.00212284
0.00195655
0.00178947
0.0014802
0.00100725
0.000741298
0.000630347
0.000721851
0.00127339
0.00177959
0.00198637
0.00275695
0.00177026
0.00182066
0.00192444
0.00192876
0.00192004
0.00194313
0.0019328
0.00194935
0.00197515
0.00203873
0.00212134
0.00210537
0.00194534
0.00176171
0.00136364
0.000900083
0.000685117
0.000629219
0.000782731
0.00114912
0.00178111
0.00260243
0.00363335
0.00177842
0.00184636
0.00193699
0.00193444
0.00192049
0.00193922
0.00192549
0.00194006
0.00196345
0.0020262
0.00210552
0.00207486
0.00190111
0.00165649
0.00123229
0.000831824
0.000664337
0.000675455
0.000901853
0.00112233
0.00219688
0.00344226
0.00425797
0.00179154
0.00186945
0.00194685
0.00193779
0.00191908
0.00193381
0.00191805
0.00193069
0.0019522
0.00201423
0.00209194
0.00205337
0.001852
0.0015804
0.00113837
0.000789035
0.000676407
0.000842127
0.00114944
0.00146939
0.00285787
0.00420209
0.00460103
0.00180864
0.00189049
0.0019518
0.00193761
0.00191564
0.00192601
0.0019103
0.00192124
0.00194175
0.00200342
0.00207702
0.00201465
0.00176967
0.00149219
0.0010522
0.000770312
0.00073187
0.00108213
0.00170174
0.00209879
0.00384574
0.00474234
0.00491632
0.00182606
0.00190578
0.00195301
0.00193505
0.00191098
0.00191768
0.00190333
0.00191276
0.00193283
0.00199426
0.00206442
0.00197488
0.00170253
0.00143049
0.00101418
0.000777726
0.000791849
0.00119189
0.00198327
0.00279484
0.00455256
0.00513787
0.00522772
0.00184299
0.0019179
0.00195093
0.00193078
0.00190596
0.00190887
0.00189681
0.00190494
0.00192475
0.00198597
0.00205249
0.00193681
0.00164466
0.00139282
0.000994487
0.000801706
0.000842847
0.00125206
0.00209242
0.00324579
0.00486277
0.0053168
0.00531091
0.00185734
0.00192614
0.00194717
0.00192551
0.00190053
0.0018999
0.00189074
0.00189756
0.00191747
0.00197855
0.00204146
0.00189999
0.00159657
0.00134871
0.000996024
0.000835045
0.000882926
0.00127297
0.00214844
0.00350162
0.00505434
0.00545983
0.0053143
0.00186965
0.00193104
0.00194134
0.00191914
0.00189493
0.00189116
0.00188512
0.00189112
0.00191099
0.00197196
0.00203115
0.00186717
0.00155508
0.001329
0.0010111
0.000872696
0.00092106
0.00131527
0.00219458
0.00361628
0.00515918
0.00522227
0.00503722
0.00187927
0.00193273
0.00193432
0.00191221
0.00188926
0.00188249
0.00187989
0.00188496
0.00190522
0.00196611
0.00202174
0.00183785
0.00152253
0.00130746
0.00104062
0.000910308
0.000957016
0.00135974
0.002243
0.00371515
0.0050389
0.00518862
0.00478847
0.00188599
0.00193062
0.00192617
0.00190442
0.00188316
0.00187463
0.00187485
0.00187983
0.00190004
0.00196093
0.00201315
0.00181167
0.00149264
0.00130023
0.0010738
0.000946258
0.00099206
0.00137013
0.00223838
0.00364769
0.00519281
0.00499973
0.00413545
0.00189043
0.00192661
0.00191717
0.00189658
0.00187742
0.00186687
0.0018702
0.0018748
0.0018955
0.00195634
0.00200543
0.00179024
0.00147277
0.0013026
0.00111118
0.000983813
0.00102402
0.00134646
0.00212394
0.00344893
0.00513507
0.0046688
0.00323289
0.00189193
0.00191976
0.00190824
0.00188822
0.00187113
0.00186035
0.00186567
0.00187081
0.0018913
0.00195233
0.00199824
0.00177096
0.00145277
0.00131111
0.0011452
0.00102183
0.00105344
0.00131236
0.00196791
0.00312027
0.00467821
0.00343074
0.00231094
0.00189285
0.00191185
0.0018987
0.00188048
0.00186564
0.00185403
0.00186145
0.00186683
0.00188771
0.00194874
0.00199112
0.00175392
0.00143909
0.0013216
0.00117107
0.00106823
0.0010817
0.00127144
0.00179198
0.0027561
0.00392952
0.00238993
0.00165085
0.00189092
0.00190314
0.00189044
0.00187251
0.0018599
0.00184912
0.00185767
0.00186384
0.00188432
0.00194572
0.00198425
0.0017395
0.00142753
0.0013376
0.0011969
0.00112072
0.00110989
0.00123509
0.00161994
0.0024282
0.00264681
0.00168543
0.00106439
0.00189034
0.00189381
0.0018819
0.00186588
0.00185512
0.00184454
0.00185399
0.00186081
0.00188143
0.00194307
0.00197672
0.00172441
0.001417
0.00134604
0.00123206
0.00115791
0.00113116
0.00120021
0.00146611
0.00216899
0.00209649
0.00129095
0.000837269
0.00188734
0.00188501
0.0018752
0.001859
0.00185055
0.00184134
0.00185108
0.00185874
0.00187877
0.00194093
0.00197007
0.00171131
0.00141303
0.00135086
0.00126921
0.00118404
0.00114781
0.0011699
0.00134251
0.0018772
0.00174235
0.00107832
0.000741372
0.00188647
0.001877
0.00186886
0.00185394
0.00184693
0.00183845
0.00184835
0.00185647
0.0018765
0.00193927
0.00196231
0.00169979
0.00140285
0.00135342
0.00130131
0.00120109
0.00115002
0.0011404
0.00120736
0.00165786
0.00146053
0.000864301
0.000901104
0.00188411
0.00186872
0.00186417
0.00184872
0.0018438
0.00183677
0.0018462
0.00185517
0.00187448
0.00193797
0.00195708
0.00169139
0.00140152
0.00135204
0.00131953
0.00120948
0.00113559
0.0011109
0.00112399
0.00143319
0.00128172
0.000894741
0.000840085
0.00188358
0.00186348
0.00186012
0.00184465
0.00184145
0.0018353
0.00184459
0.00185348
0.00187297
0.0019373
0.00195052
0.00168606
0.00138988
0.00133959
0.00133258
0.00120866
0.00112185
0.0010764
0.00103548
0.00125701
0.00115022
0.000885425
0.000716229
0.0018823
0.00185653
0.00185762
0.00184166
0.00183981
0.00183473
0.00184326
0.00185264
0.00187156
0.00193652
0.0019485
0.00167377
0.00135928
0.00132311
0.00133545
0.00119818
0.00109827
0.00104434
0.00096119
0.0011334
0.0010526
0.000981294
0.000775918
0.00188198
0.00185358
0.00185529
0.00183778
0.00183844
0.00183412
0.00184241
0.0018515
0.00187063
0.0019368
0.00194771
0.0016555
0.00133219
0.00129843
0.00133361
0.00118671
0.00106967
0.00100579
0.000893619
0.000983705
0.00105851
0.000889143
0.00092839
0.00188208
0.00184881
0.00185425
0.00183677
0.001838
0.00183443
0.00184183
0.00185069
0.00186985
0.00193657
0.00194137
0.00163768
0.00130769
0.00127157
0.00132254
0.00116343
0.0010401
0.000974991
0.000841055
0.000895145
0.000920606
0.000843269
0.000774368
0.0018809
0.00184723
0.00185338
0.00183322
0.00183744
0.0018338
0.00184149
0.00184967
0.00186936
0.00193723
0.00193954
0.00162681
0.00128636
0.00123829
0.00130726
0.00114115
0.00101287
0.000950417
0.000813951
0.000837357
0.000851659
0.000873568
0.00071538
0.00188235
0.00184477
0.00185277
0.00183307
0.00183761
0.00183487
0.00184128
0.00184962
0.00186949
0.00193815
0.00194022
0.00162183
0.00126804
0.00120647
0.00128882
0.00111669
0.00097725
0.000922648
0.000782631
0.000797222
0.000792277
0.000890566
0.000804492
0.0018803
0.00184368
0.00185237
0.00183084
0.00183765
0.00183403
0.00184112
0.00184741
0.00186979
0.00193851
0.00194283
0.00162259
0.00125332
0.00117381
0.0012665
0.00109967
0.00097775
0.000922078
0.000787867
0.000780418
0.000796526
0.000905223
0.00103253
0.00188192
0.00184295
0.00185229
0.00182994
0.00183793
0.00183479
0.00184102
0.00184656
0.00187119
0.00193901
0.00194789
0.00162945
0.00124529
0.00114631
0.00125478
0.00107703
0.000979725
0.000907827
0.000782273
0.000802407
0.000837506
0.000914338
0.00112274
0.0018798
0.00184319
0.00185187
0.00183031
0.00183878
0.0018349
0.00184106
0.00184495
0.0018723
0.00194132
0.00195384
0.00164282
0.00123961
0.00112492
0.00122849
0.00107753
0.000993552
0.000905465
0.000803027
0.000826826
0.00088543
0.00108195
0.00127525
0.00188085
0.00184198
0.00185128
0.00182885
0.0018386
0.00183454
0.00184078
0.00184286
0.00187331
0.00194189
0.00196111
0.00165941
0.00124864
0.00111277
0.00121755
0.00107214
0.00100113
0.000924471
0.000839691
0.000869449
0.00099255
0.0011678
0.00141137
0.00188104
0.00184289
0.00185173
0.00182874
0.00183971
0.00183471
0.00183921
0.00184179
0.00187463
0.00194367
0.00196812
0.00168371
0.00125379
0.00110882
0.00121519
0.00110675
0.00106745
0.000936229
0.000867315
0.000912924
0.00111581
0.00132192
0.00195006
0.00187268
0.00184345
0.00185177
0.00183042
0.00183987
0.00183545
0.00183739
0.00184122
0.00187543
0.00194552
0.00197563
0.00170714
0.00128071
0.0011263
0.00119164
0.0011596
0.00111364
0.000953983
0.000916283
0.00127518
0.00161201
0.0025144
0.00417659
0.00186511
0.00183971
0.00184676
0.0018277
0.00184069
0.00183068
0.00183463
0.00184096
0.00187591
0.00194519
0.00198047
0.00173806
0.00131141
0.00113605
0.00124249
0.00120331
0.00112239
0.000975179
0.000944729
0.00136785
0.00291599
0.00399178
0.00531147
0.00185785
0.00183731
0.00183843
0.00182682
0.00183387
0.00182889
0.00183322
0.0018413
0.00187637
0.00194851
0.0019896
0.00176568
0.0013466
0.00117616
0.00130921
0.00123693
0.0011392
0.00100575
0.0011368
0.00169626
0.00367003
0.00547942
0.00632756
0.00185175
0.00182438
0.00183385
0.00182672
0.00183362
0.00182558
0.00183519
0.00184156
0.00187651
0.00195085
0.00199104
0.00179061
0.0013964
0.00123281
0.00132234
0.00127827
0.00115797
0.00102342
0.00120691
0.00262626
0.00465135
0.00573355
0.00669091
0.00183921
0.00182089
0.00183216
0.00182475
0.00183134
0.00182711
0.00183429
0.00184192
0.00187677
0.00195324
0.00199624
0.00184637
0.00144284
0.00126453
0.0013738
0.00130464
0.00116627
0.00142695
0.00169875
0.00359598
0.00581176
0.00621455
0.00726471
0.00183562
0.00181936
0.00182975
0.00182504
0.00182968
0.00182919
0.00183308
0.00184004
0.00187646
0.0019554
0.00200945
0.00189606
0.00151457
0.00130849
0.00139619
0.00131108
0.00118354
0.00174164
0.00339432
0.00508189
0.00685084
0.00708942
0.00765006
0.00182972
0.00181704
0.00183273
0.00182494
0.00182881
0.00182697
0.00183
0.0018407
0.00187717
0.00195627
0.00201681
0.00190852
0.00155277
0.00130554
0.00140471
0.00130103
0.00119413
0.00282373
0.00466611
0.00604607
0.00746966
0.00759044
0.00797335
0.00182941
0.0018179
0.0018295
0.0018231
0.0018305
0.00182727
0.00183079
0.00183984
0.00187711
0.00195833
0.00202209
0.00191552
0.00159308
0.00133241
0.00139708
0.0013253
0.00121593
0.00554948
0.0064359
0.00702553
0.00787721
0.00774429
0.00811535
0.00182716
0.00181411
0.00182928
0.00182306
0.00182896
0.0018262
0.001831
0.00184098
0.00187745
0.00196059
0.00202873
0.00191248
0.00160424
0.001339
0.00141663
0.00132987
0.00133398
0.00639378
0.00820066
0.0078999
0.00814368
0.00799446
0.00815178
0.00182594
0.00181719
0.00182797
0.00182123
0.00182883
0.00182601
0.00183009
0.00184088
0.00187772
0.00196143
0.00202817
0.00190733
0.00160609
0.00131946
0.00142126
0.00132545
0.00140592
0.00656306
0.00872673
0.00850658
0.00840214
0.00809654
0.00807182
0.00182624
0.00181611
0.00182739
0.00182041
0.00182935
0.00182592
0.0018301
0.00184053
0.00187794
0.0019608
0.00203042
0.00190159
0.00160973
0.00133398
0.00140895
0.00135544
0.00152026
0.00609044
0.00916181
0.00876169
0.00850327
0.00812334
0.00815235
0.00182845
0.0018155
0.00182742
0.00182064
0.00182708
0.00182581
0.00183024
0.00184233
0.00187908
0.00196445
0.00202879
0.00189692
0.00160517
0.00133432
0.00140857
0.00136141
0.00162449
0.00626377
0.00884509
0.00877351
0.008602
0.00818468
0.00810777
0.00182348
0.00181831
0.00182895
0.00182153
0.00182739
0.00182645
0.00182995
0.00184242
0.00187941
0.00196558
0.00202893
0.00190955
0.00162795
0.00133272
0.00141954
0.0013425
0.00178649
0.00643373
0.00906367
0.00890314
0.00864262
0.00823332
0.00800192
0.00182234
0.00181867
0.00182538
0.00181964
0.00182811
0.00182408
0.00183055
0.00184149
0.00188027
0.00196582
0.00201885
0.00191252
0.00160382
0.00135549
0.0014149
0.00133421
0.00187005
0.00700939
0.00902181
0.00873803
0.00831541
0.0078885
0.00765902
0.00182173
0.00181674
0.00182637
0.00182091
0.00182912
0.00182266
0.00183154
0.00184155
0.00188052
0.00196457
0.00201565
0.0019107
0.00159335
0.00134171
0.00143138
0.00135965
0.0020787
0.00750216
0.00894105
0.00837356
0.00802319
0.007661
0.0074188
0.00182263
0.00182258
0.00182692
0.00182072
0.0018288
0.00182367
0.00183128
0.00184076
0.00187922
0.00196119
0.00201249
0.00191108
0.00159763
0.00134067
0.00142747
0.00136123
0.00212324
0.00725395
0.00842169
0.00803203
0.00759426
0.00725636
0.00715561
0.00181854
0.00181593
0.00182469
0.00182147
0.00182605
0.00182299
0.00182975
0.00184319
0.00187834
0.00195787
0.00201015
0.00191376
0.00161784
0.00135163
0.00142107
0.00140484
0.00213044
0.00629861
0.00781117
0.00768003
0.00739352
0.00703549
0.00690213
0.00182349
0.00182032
0.00182275
0.00182503
0.00182527
0.00182022
0.00182661
0.0018425
0.00187721
0.00195609
0.00200893
0.00192517
0.00164312
0.00135873
0.00145165
0.00139261
0.00208354
0.00548771
0.00736213
0.00722587
0.00714279
0.00683532
0.00667012
0.00181688
0.00181255
0.00182012
0.00182364
0.0018224
0.00181904
0.00182659
0.00183961
0.00187615
0.00195387
0.00200838
0.00193524
0.00167041
0.0013987
0.00143256
0.00148176
0.0019903
0.0048527
0.00697208
0.00679297
0.00691587
0.00664563
0.00645283
0.00181765
0.00181133
0.00182046
0.00182081
0.00181925
0.0018215
0.00183063
0.0018373
0.00187493
0.00195228
0.00200838
0.00194508
0.00170543
0.00144981
0.00155449
0.00149158
0.00185936
0.00434898
0.00632674
0.00636237
0.00680045
0.0065643
0.00630546
0.00182304
0.00181516
0.00181472
0.00181599
0.00182138
0.00182267
0.00183403
0.00183726
0.00187392
0.00195078
0.00200872
0.00195569
0.00172246
0.00154115
0.00151848
0.00161466
0.00213637
0.00425603
0.00619661
0.00626983
0.00661656
0.00639494
0.00619847
0.00182483
0.00181705
0.00181422
0.00180903
0.00182458
0.00181919
0.0018337
0.00183858
0.00187293
0.00194842
0.00200863
0.00196416
0.00177685
0.0016439
0.00166311
0.00172611
0.00214647
0.00379257
0.00570822
0.00625433
0.00683289
0.00632329
0.00606913
0.00182618
0.0018143
0.00182182
0.0018105
0.00182462
0.00181803
0.00182735
0.00183878
0.00187177
0.00194766
0.00200937
0.00197315
0.00181499
0.00175167
0.00178591
0.00202047
0.00243543
0.00399967
0.00545685
0.00620792
0.00665117
0.00625355
0.00592064
0.00182513
0.0018143
0.00182085
0.00181582
0.00182309
0.00181537
0.00182264
0.00183821
0.00187092
0.00194587
0.00200835
0.001983
0.00189776
0.00188379
0.00186309
0.00218933
0.00281124
0.00436093
0.00551417
0.00611284
0.00623637
0.00605955
0.00573647
0.00181848
0.00181313
0.00182055
0.00181837
0.00181955
0.00181491
0.00182139
0.00183675
0.00186915
0.00194583
0.00200769
0.00199158
0.00209208
0.00211904
0.00240347
0.00267787
0.00335607
0.00521534
0.00535364
0.00599651
0.00611469
0.00590751
0.00541598
0.00182006
0.00181905
0.00181315
0.00181686
0.00182053
0.00181787
0.00182022
0.00183581
0.00186806
0.00194516
0.0020062
0.00199859
0.00214334
0.00240561
0.00276011
0.00313116
0.00401593
0.00541029
0.00558519
0.00582597
0.00596354
0.00565007
0.00516555
0.00181041
0.0018188
0.00181336
0.00181632
0.00182042
0.00181715
0.00181826
0.00183472
0.001866
0.0019439
0.00200285
0.00200658
0.00217997
0.00274488
0.00341534
0.00413671
0.00453493
0.00610564
0.00583245
0.00548866
0.00600475
0.00554622
0.00489856
0.00180906
0.0018189
0.00180415
0.00181778
0.00181908
0.00181443
0.00181804
0.00183542
0.00186458
0.00194094
0.0020009
0.00200838
0.00230753
0.00307796
0.00374344
0.00515704
0.00538475
0.00694042
0.00649746
0.00610263
0.00598129
0.00544637
0.00473691
0.00180837
0.00180512
0.00181521
0.00181745
0.00181522
0.00181381
0.00181491
0.00183177
0.0018616
0.00193645
0.00199529
0.00201147
0.00243338
0.00340116
0.00463233
0.00664909
0.00631879
0.00760353
0.0073014
0.00624817
0.00604112
0.00549575
0.00473847
0.00180427
0.00179485
0.00182233
0.00181432
0.00181075
0.00181239
0.00180992
0.00183005
0.00185976
0.00193348
0.00199348
0.00201416
0.00238139
0.00368307
0.00585131
0.00694332
0.00715687
0.00736253
0.00734416
0.00667933
0.0061171
0.00521989
0.00431261
0.00180174
0.00178881
0.00182804
0.00180783
0.00180748
0.0018179
0.00181057
0.00182569
0.00185621
0.0019279
0.0019885
0.00202133
0.00249729
0.00399081
0.00736624
0.00732274
0.00833384
0.00792752
0.00743526
0.0067872
0.00559801
0.00475586
0.00389184
0.00180175
0.00178763
0.00183101
0.00180251
0.00180581
0.00182135
0.0018145
0.00182539
0.00185394
0.00192622
0.00198687
0.0020286
0.00266869
0.00439563
0.00688403
0.00806453
0.00899329
0.0080992
0.00740824
0.00607481
0.0052347
0.0046292
0.00402769
0.00180302
0.00179478
0.00182994
0.0018001
0.00180506
0.00182023
0.0018159
0.00182193
0.00185042
0.00191947
0.00198361
0.00203688
0.00280494
0.00513787
0.00773029
0.00879022
0.00892897
0.00825561
0.00687599
0.00582845
0.00532802
0.00473127
0.00390939
0.00180372
0.00180178
0.00182134
0.00179984
0.00180449
0.00181567
0.00181496
0.00182116
0.00184768
0.00191747
0.00198038
0.00204525
0.00291828
0.00551958
0.00804278
0.00881728
0.009099
0.00727419
0.00612721
0.00591868
0.00535214
0.00455626
0.00379038
0.00180241
0.0018031
0.0018121
0.00180015
0.00180325