/*--------------------------------*- C++ -*----------------------------------*\
  =========                 |
  \\      /  F ield         | OpenFOAM: The Open Source CFD Toolbox
   \\    /   O peration     | Website:  https://openfoam.org
    \\  /    A nd           | Version:  7
     \\/     M anipulation  |
\*---------------------------------------------------------------------------*/
FoamFile
{
    version     2.0;
    format      ascii;
    class       volScalarField;
    location    "84";
    object      omega;
}
// * * * * * * * * * * * * * * * * * * * * * * * * * * * * * * * * * * * * * //

dimensions      [0 0 -1 0 0 0 0];

internalField   nonuniform List<scalar> 
12842
(
3.13769
2.83443
2.64548
2.52905
2.43515
2.36847
2.31611
2.28699
2.26414
2.25351
2.24413
2.24668
2.25641
2.27835
2.3221
2.39083
2.51899
2.64828
2.84581
3.00603
3.23211
3.37129
3.58032
3.11839
2.80904
2.61306
2.4971
2.41861
2.36303
2.3133
2.28425
2.26174
2.25122
2.24317
2.246
2.25729
2.28182
2.32707
2.40084
2.52264
2.67903
2.87577
3.03278
3.26808
3.41078
3.58173
3.09333
2.77935
2.58828
2.48204
2.39844
2.34435
2.29937
2.27286
2.25362
2.24468
2.24071
2.24549
2.25958
2.28817
2.33848
2.41928
2.54423
2.69224
2.91922
3.0575
3.26789
3.44865
3.61858
3.06283
2.73795
2.55053
2.44566
2.37791
2.33215
2.29204
2.26761
2.24933
2.24113
2.23946
2.24547
2.26175
2.29406
2.34906
2.43697
2.58075
2.73062
2.95457
3.12144
3.30363
3.49127
3.66059
3.03248
2.70279
2.52301
2.42813
2.35675
2.31515
2.27775
2.25605
2.24231
2.23543
2.23722
2.24538
2.26498
2.30158
2.36372
2.4592
2.60386
2.75924
2.98911
3.17417
3.33334
3.5005
3.72083
2.9986
2.66209
2.48634
2.39722
2.33849
2.30095
2.26828
2.24999
2.23731
2.23218
2.23575
2.24613
2.26869
2.3102
2.37634
2.48136
2.64918
2.79964
3.02837
3.2372
3.42485
3.586
3.75673
2.96489
2.6303
2.46254
2.37903
2.32
2.28754
2.25733
2.24087
2.23173
2.22793
2.23334
2.24681
2.27296
2.31839
2.39528
2.50692
2.67883
2.83802
3.04974
3.27803
3.46537
3.63167
3.8596
2.93357
2.59494
2.43249
2.35614
2.30509
2.27512
2.24793
2.23502
2.22715
2.22523
2.23145
2.24677
2.27618
2.32728
2.40486
2.52979
2.72343
2.88956
3.10992
3.3467
3.5712
3.72659
3.91229
2.89681
2.56858
2.41431
2.34016
2.29082
2.26517
2.24041
2.2287
2.22308
2.22228
2.23006
2.24845
2.28186
2.33719
2.42819
2.55563
2.74969
2.92365
3.13425
3.38324
3.61776
3.77335
4.00317
2.86415
2.53396
2.38939
2.32394
2.2807
2.25604
2.23357
2.22532
2.22007
2.22035
2.2291
2.24922
2.28634
2.34846
2.44066
2.58058
2.78472
2.97086
3.1832
3.44282
3.69154
3.85965
4.05033
2.82138
2.50979
2.37427
2.30979
2.26904
2.2483
2.22821
2.2211
2.21708
2.21814
2.22798
2.25054
2.29006
2.35614
2.46222
2.6041
2.80333
3.00209
3.20623
3.47097
3.72656
3.90127
4.12047
2.78939
2.47954
2.35314
2.29665
2.26112
2.2403
2.22289
2.21851
2.21438
2.21636
2.22751
2.25192
2.29436
2.36742
2.47395
2.62696
2.83955
3.05182
3.26749
3.54654
3.81704
4.01387
4.20727
2.74776
2.45876
2.34065
2.28426
2.25106
2.23362
2.21866
2.21523
2.21165
2.21439
2.2265
2.25388
2.29885
2.37608
2.49592
2.6564
2.85971
3.08774
3.29836
3.5848
3.86272
4.07866
4.29812
2.71613
2.4335
2.32254
2.27316
2.24422
2.22675
2.21473
2.21269
2.20915
2.21279
2.22651
2.25634
2.30285
2.38614
2.50627
2.67452
2.89633
3.14715
3.37791
3.68443
3.98211
4.21355
4.42318
2.67954
2.41612
2.3123
2.26303
2.23589
2.22098
2.21144
2.20984
2.20654
2.21089
2.22663
2.25915
2.30819
2.39675
2.52887
2.70889
2.92355
3.18342
3.41871
3.73663
4.04576
4.31948
4.59122
2.65288
2.39562
2.29649
2.25335
2.22945
2.21535
2.20826
2.20698
2.2042
2.20943
2.22661
2.26152
2.3128
2.4046
2.53961
2.72575
2.95876
3.25651
3.51963
3.86024
4.19505
4.45909
4.70136
2.62702
2.38107
2.28794
2.24522
2.22246
2.21048
2.20536
2.20413
2.20176
2.20745
2.22787
2.26391
2.3208
2.41711
2.56428
2.7635
2.9974
3.29108
3.57129
3.92213
4.27659
4.60903
4.97479
2.60424
2.3646
2.27416
2.23665
2.21641
2.20591
2.2023
2.20106
2.19954
2.20603
2.22812
2.26595
2.3266
2.42352
2.57655
2.78235
3.03544
3.37115
3.68936
4.06821
4.46328
4.79701
5.13442
2.58594
2.352
2.26678
2.22968
2.21024
2.20187
2.19935
2.19821
2.1972
2.20399
2.2275
2.26867
2.33488
2.43767
2.60476
2.8252
3.07909
3.41644
3.75342
4.14493
4.57351
4.96359
5.51782
2.56718
2.33904
2.25513
2.22196
2.20481
2.19785
2.19611
2.19517
2.19507
2.20268
2.22765
2.27262
2.34231
2.44535
2.61976
2.84928
3.14023
3.52734
3.87155
4.32845
4.83853
5.33397
5.86473
2.55313
2.32756
2.24852
2.21552
2.19914
2.19431
2.19315
2.19251
2.19267
2.20085
2.22819
2.27547
2.35238
2.46216
2.65411
2.90131
3.19894
3.59152
3.93211
4.43865
5.0232
5.6363
6.47391
2.5382
2.31765
2.23899
2.20824
2.19434
2.19037
2.18984
2.18952
2.19068
2.19974
2.22997
2.28169
2.35901
2.47266
2.67364
2.94191
3.29778
3.74546
4.06919
4.70437
5.45691
6.28307
7.10836
2.52675
2.30696
2.23274
2.20226
2.18902
2.18693
2.18705
2.18718
2.18838
2.19829
2.2306
2.28689
2.37111
2.49235
2.71738
3.00674
3.38251
3.82659
4.17165
4.92258
5.86281
6.90528
8.10359
2.51628
2.30109
2.22704
2.19665
2.18553
2.18408
2.1846
2.18474
2.18672
2.19838
2.23316
2.29392
2.38309
2.5102
2.74638
3.0766
3.49973
4.01936
4.44703
5.44612
6.61639
8.26725
10.0978
2.50911
2.29468
2.22354
2.19335
2.18293
2.18202
2.18339
2.18347
2.18579
2.19828
2.23449
2.29821
2.39036
2.52947
2.80635
3.18024
3.68217
4.21203
4.75806
6.0915
8.13175
10.5366
12.4637
2.50178
2.29107
2.22019
2.18992
2.18078
2.18038
2.18199
2.18198
2.18503
2.19812
2.23595
2.30454
2.40013
2.55841
2.84337
3.26973
3.81623
4.50928
5.59229
7.74724
10.1526
13.1295
16.898
2.49437
2.28519
2.21681
2.18702
2.17826
2.17821
2.18103
2.18093
2.18446
2.1982
2.23826
2.30866
2.41916
2.57702
2.92659
3.44701
4.19699
5.24822
6.72528
9.23045
13.0485
20.2444
36.5274
2.48759
2.28166
2.21379
2.18401
2.17633
2.17686
2.17982
2.17969
2.18391
2.19827
2.24018
2.31354
2.42343
2.61726
2.97843
3.57246
4.45199
5.80181
8.19149
14.0084
28.7012
62.8575
123.018
2.48055
2.27638
2.21042
2.18156
2.17396
2.1749
2.17894
2.17888
2.18355
2.19779
2.24237
2.31857
2.42065
2.64279
3.08973
3.82305
5.06242
7.25146
11.6608
21.5646
50.5474
113.71
194.48
2.47426
2.27282
2.2078
2.17915
2.17233
2.17381
2.17777
2.17793
2.18295
2.19859
2.24566
2.32187
2.42765
2.69539
3.17099
4.04984
5.53069
8.52784
16.3337
42.4728
112.326
193.644
265.809
2.468
2.26794
2.20435
2.1771
2.17018
2.17207
2.17689
2.17739
2.18254
2.19871
2.24916
2.32973
2.43845
2.72993
3.29809
4.31897
6.38515
11.7437
28.0581
71.5694
146.558
233.752
287.336
2.46224
2.26439
2.20209
2.17537
2.16891
2.17116
2.17571
2.17659
2.1817
2.1985
2.25142
2.3416
2.46627
2.79821
3.44176
4.71865
7.36214
14.3715
37.6375
88.8634
167.929
241.3
306.153
2.45679
2.25977
2.19862
2.17349
2.167
2.16959
2.17468
2.17588
2.18134
2.19966
2.25078
2.34488
2.4878
2.85592
3.57141
4.99197
8.4041
19.3952
55.8909
117.183
181.278
268.243
322.332
2.45155
2.25624
2.19669
2.17236
2.16591
2.16875
2.17322
2.17481
2.18052
2.19993
2.25492
2.34672
2.53114
2.936
3.76792
5.50203
9.98283
24.7879
64.3788
128.72
214.332
266.105
315.889
2.44677
2.25194
2.19315
2.17045
2.16443
2.16715
2.17166
2.17338
2.18031
2.20012
2.25911
2.36172
2.57373
3.02998
3.91656
5.8215
10.9175
30.2667
86.6269
147.454
211.532
264.779
296.82
2.44208
2.24836
2.1914
2.16943
2.16317
2.16612
2.16973
2.17203
2.18034
2.2044
2.27709
2.39379
2.62492
3.12596
4.14453
6.35581
12.2286
39.3415
86.8089
144.274
212.829
258.237
285.043
2.43754
2.24458
2.18794
2.16748
2.16208
2.16428
2.16756
2.17023
2.1813
2.21129
2.30038
2.43255
2.70027
3.25207
4.31006
6.6929
15.399
40.1471
87.6648
146.292
213.842
265.829
279.393
2.43378
2.24099
2.18614
2.16611
2.16025
2.16247
2.16567
2.17036
2.18612
2.23096
2.33916
2.49265
2.76635
3.36824
4.55975
7.18568
16.5442
36.2521
79.1711
146.531
219.553
263.138
279.546
2.4289
2.23755
2.18258
2.16396
2.15851
2.1604
2.16343
2.17097
2.1948
2.24965
2.37601
2.54497
2.86303
3.52066
4.73927
7.42886
16.7731
39.3897
68.4033
143.094
219.589
262.377
280.276
2.42613
2.23432
2.18058
2.16178
2.15645
2.15862
2.16361
2.17641
2.21024
2.28595
2.4355
2.63258
2.96039
3.66142
4.98341
7.65687
17.0439
37.1463
70.756
136.531
225.063
263.184
275.563
2.42107
2.23069
2.17671
2.15879
2.15409
2.15613
2.1644
2.18643
2.23017
2.31749
2.48206
2.69147
3.05488
3.82666
5.19597
7.90317
16.7005
31.4776
75.9607
152
211.551
277.057
289.876
2.41847
2.2279
2.17405
2.15603
2.15193
2.15561
2.17131
2.2032
2.25846
2.36901
2.5617
2.80555
3.20029
4.00528
5.4485
8.0141
14.3419
36.0844
77.7497
148.071
221.031
286.75
300.111
2.41393
2.22341
2.16934
2.153
2.14916
2.15719
2.18259
2.22478
2.29168
2.41345
2.61459
2.86616
3.28209
4.18075
5.66296
8.18844
15.2138
31.6874
74.5178
148.505
218.757
297.842
302.873
2.4106
2.22072
2.16657
2.15022
2.14951
2.16233
2.20186
2.25374
2.3333
2.47714
2.70862
2.99652
3.46084
4.37789
5.95763
8.31539
13.9673
27.5074
76.6524
149.391
229.256
268.619
265.835
2.40676
2.21542
2.16167
2.14702
2.15014
2.1733
2.22479
2.28754
2.37848
2.53212
2.76655
3.06325
3.55604
4.61314
6.15799
8.51532
13.6691
31.7072
76.6247
148.853
252.613
257.551
249.593
2.40215
2.21264
2.1596
2.14614
2.15735
2.18872
2.256
2.32798
2.43124
2.60312
2.86712
3.19709
3.74115
4.77072
6.46425
8.98451
14.078
29.3151
71.3101
155.295
232.835
255.764
259.86
2.39775
2.20699
2.15581
2.14646
2.1682
2.21063
2.2907
2.37189
2.48488
2.66433
2.92555
3.26745
3.84335
5.06929
6.81193
9.83425
16.5949
33.2862
78.641
174.202
218.534
261.45
223.493
2.39238
2.20386
2.15455
2.15289
2.1879
2.23777
2.33231
2.42096
2.5445
2.73743
3.02823
3.40383
4.05512
5.27495
7.34532
11.7427
20.518
38.5763
84.8196
162.556
221.895
287.018
208.214
2.38659
2.19859
2.15354
2.16218
2.21003
2.27122
2.37737
2.47275
2.60377
2.80169
3.08445
3.47564
4.17087
5.60175
8.35723
14.4824
25.889
46.1901
90.5957
155.598
220.455
277.074
190.879
2.38005
2.19646
2.15692
2.18132
2.2429
2.31132
2.4288
2.52933
2.66789
2.87382
3.18053
3.6049
4.41091
6.10302
9.78246
18.5797
32.6502
54.3458
92.7587
149.55
209.924
176.65
161.701
2.37356
2.1935
2.16501
2.20423
2.27867
2.35568
2.48157
2.58553
2.72844
2.93586
3.23552
3.67267
4.55451
6.60194
12.1028
24.057
40.7703
62.9046
94.5708
128.101
200.548
173.117
163.818
2.3671
2.1931
2.18237
2.23643
2.32222
2.40452
2.53607
2.64184
2.78781
2.99753
3.31148
3.79149
4.88669
7.80526
15.3728
30.0293
48.6943
70.391
97.236
105.762
164.009
167.578
168.56
2.36145
2.19344
2.20401
2.27114
2.36749
2.45489
2.58993
2.69604
2.84299
3.05113
3.35954
3.86386
5.14423
9.01463
19.0651
36.3716
56.2833
76.7305
100.638
104.691
143.437
160.874
172.997
2.35722
2.19645
2.23322
2.31289
2.41734
2.50806
2.64329
2.74866
2.89526
3.10229
3.41802
3.99095
5.67922
11.2221
23.8148
42.4394
61.9668
80.8435
103.909
108.584
143.675
167.098
178.14
2.35447
2.20584
2.26537
2.35621
2.46693
2.56029
2.69391
2.79762
2.94256
3.14657
3.46308
4.09268
6.25609
13.3661
28.2758
47.4487
66.1731
83.955
105.378
110.121
151.594
172.495
182.861
2.35318
2.22245
2.30366
2.40386
2.51831
2.61367
2.74279
2.84431
2.98669
3.18831
3.51544
4.26661
7.23188
16.273
33.3732
51.8288
68.8407
85.6119
106.762
119.714
160.003
178.331
185.664
2.35322
2.24575
2.34287
2.44968
2.565
2.6614
2.78453
2.88342
3.02247
3.22134
3.55957
4.45648
8.15322
18.8893
37.047
54.0761
68.9278
85.7858
107.711
131.251
170.228
183.363
184.292
2.35717
2.27257
2.38387
2.49531
2.60993
2.70722
2.82337
2.91959
3.05508
3.25155
3.60451
4.67463
9.18123
21.4817
40.4366
55.5049
69.0855
85.8587
107.876
138.8
174.41
182.361
179.233
2.36675
2.30569
2.42681
2.54146
2.65368
2.75142
2.85979
2.95325
3.08475
3.27917
3.65014
4.91476
10.2585
24.2806
43.0251
56.2888
69.1439
85.3419
106.962
143.043
179.047
177.763
167.835
2.38226
2.34223
2.47125
2.58724
2.69575
2.79325
2.89355
2.98397
3.11159
3.30433
3.69648
5.17065
11.3615
26.7334
45.0501
56.6421
68.415
83.4684
105.736
144.393
180.994
168.593
151.644
2.40227
2.38322
2.51631
2.63219
2.73585
2.83276
2.92478
3.01237
3.13567
3.32719
3.74284
5.43318
12.4599
29.1697
46.2554
56.7421
66.9268
80.6355
102.886
142.098
179.993
158.604
134.964
2.42715
2.42626
2.5612
2.67583
2.77381
2.86894
2.95348
3.03782
3.15739
3.34795
3.78891
5.70046
13.5399
31.1673
47.0384
56.7167
65.0862
77.0702
97.8139
138.196
171.709
144.691
122.386
2.45544
2.47131
2.60575
2.71738
2.80933
2.9026
2.97974
3.06127
3.17661
3.36677
3.8345
5.96392
14.5593
32.7357
47.341
56.2528
62.9616
72.9823
91.2416
130.729
156.83
126.595
105.91
2.48622
2.51673
2.64842
2.75697
2.84231
2.93234
3.00359
3.08197
3.19404
3.38385
3.87962
6.2275
15.5392
33.8972
47.3948
55.2867
60.6758
68.7455
83.9163
118.368
135.863
107.09
90.957
2.51875
2.56204
2.68997
2.79344
2.87268
2.95966
3.02527
3.10091
3.20924
3.39938
3.92525
6.4844
16.3956
34.6136
47.3937
53.9594
58.3059
64.5853
76.4487
106.937
110.122
89.3741
76.7146
2.55154
2.60574
2.72827
2.82752
2.90017
2.98291
3.04447
3.11743
3.22308
3.41352
3.97117
6.72785
17.139
34.9998
47.0451
52.2671
55.7616
60.5342
69.5511
93.3844
94.0148
75.1244
62.5781
2.58409
2.64792
2.76463
2.85797
2.92514
3.00397
3.06199
3.13243
3.23515
3.42648
4.01733
6.95485
17.7256
35.1445
46.1323
50.2885
53.1044
56.71
63.4045
82.1437
81.6148
64.866
54.4244
2.61584
2.68724
2.79729
2.88601
2.94728
3.02143
3.07696
3.1453
3.24604
3.43834
4.06248
7.14824
18.1266
35.147
44.8295
47.9875
50.2274
53.0273
58.1966
71.9552
71.8209
57.6955
53.7846
2.64548
2.72354
2.82718
2.91044
2.96717
3.03682
3.09068
3.15705
3.2556
3.44927
4.1044
7.3072
18.3766
35.03
43.1079
45.4751
47.2302
49.4994
54.7873
63.9506
63.8304
57.4274
53.3563
2.67417
2.7577
2.85377
2.93286
2.98449
3.04975
3.10207
3.16694
3.2643
3.45929
4.14195
7.41894
18.4445
34.4649
41.0654
42.7276
44.0537
45.9659
51.8127
58.0738
59.9626
55.6933
49.1225
2.70015
2.78695
2.8773
2.95243
3.00042
3.06061
3.11253
3.17607
3.27166
3.4685
4.17228
7.48944
18.476
33.4591
38.6999
39.8449
40.7693
42.3158
49.5586
52.9452
53.4424
49.7358
47.3272
2.72468
2.81589
2.89824
2.96991
3.01369
3.07033
3.12098
3.18385
3.27875
3.47694
4.1941
7.53364
18.4039
32.0776
36.0882
36.8582
37.4383
38.6481
46.2828
49.8048
49.6882
48.1671
47.3483
2.74776
2.83911
2.9166
2.98647
3.02686
3.07842
3.12899
3.19077
3.28474
3.48435
4.21091
7.53586
18.0374
30.3944
33.2973
33.7616
34.1173
35.041
42.4629
45.3825
46.8677
46.8595
47.2404
2.7683
2.86298
2.93323
2.99998
3.03732
3.08577
3.13519
3.19716
3.29036
3.49092
4.2238
7.47668
17.4051
28.4448
30.3913
30.678
30.8985
31.6166
38.8142
41.4687
44.7016
45.3397
47.5585
2.7892
2.88196
2.94797
3.01462
3.04845
3.09311
3.1415
3.20273
3.2955
3.49612
4.21843
7.33825
16.5727
26.3132
27.5218
27.644
27.7071
28.4488
34.973
38.6384
41.6856
47.0767
48.0195
2.80708
2.90198
2.96188
3.02582
3.05733
3.09868
3.14631
3.2073
3.29914
3.50029
4.20171
7.14195
15.5699
24.0994
24.7047
24.6746
24.7429
25.6365
31.9855
36.0245
40.7479
43.0561
44.8277
2.82632
2.91775
2.97489
3.03852
3.06712
3.10641
3.15168
3.21303
3.3025
3.50334
4.1749
6.89101
14.4927
21.8309
22.0481
21.902
21.9996
23.2611
29.0933
34.6684
39.3671
41.333
45.5503
2.84248
2.93545
2.98685
3.04888
3.07527
3.11136
3.15563
3.2153
3.30341
3.50624
4.1386
6.6127
13.3453
19.6621
19.5797
19.4871
19.6189
21.3894
27.1447
33.0585
37.9234
41.0106
45.1107
2.86116
2.94926
2.99974
3.05953
3.08379
3.11889
3.16038
3.2203
3.30454
3.50726
4.0961
6.30611
12.2301
17.5554
17.3856
17.2898
17.6318
20.0468
25.7078
32.4408
36.9859
40.8175
45.5898
2.87558
2.9643
3.01036
3.06919
3.09218
3.12485
3.16489
3.22365
3.30531
3.50655
4.04824
6.00974
11.15
15.6618
15.4502
15.4381
16.1205
19.031
24.6043
31.2655
36.6164
44.2045
51.8755
2.89362
2.97836
3.02236
3.07931
3.09939
3.13174
3.1678
3.22579
3.30489
3.50537
3.9991
5.70285
10.1385
13.9658
13.7959
13.929
15.0042
18.5091
23.788
30.7223
38.1336
52.1702
64.8103
2.90851
2.99055
3.03463
3.0868
3.10819
3.13877
3.17422
3.22699
3.30482
3.50305
3.94904
5.43888
9.24984
12.4873
12.4411
12.76
14.2279
18.0162
23.4087
30.154
41.9469
63.3463
81.2992
2.92319
3.00697
3.04378
3.09916
3.11509
3.14743
3.17851
3.22754
3.30482
3.50058
3.90172
5.16454
8.41701
11.2638
11.3069
11.9246
13.7183
17.8277
23.0271
31.621
46.0591
71.8353
94.1809
2.94216
3.01813
3.0595
3.1065
3.12653
3.15493
3.18101
3.22742
3.30462
3.49719
3.85695
4.95315
7.73619
10.2619
10.5565
11.3729
13.4141
17.3211
22.5255
32.2963
50.4885
79.7239
103.72
2.95635
3.03741
3.07057
3.1121
3.1312
3.159
3.18037
3.22803
3.30466
3.494
3.81424
4.74249
7.1482
9.61958
10.0181
11.0384
13.2116
17.2406
22.831
36.2755
59.4401
89.1648
109.468
2.97476
3.04301
3.07532
3.11389
3.13298
3.15853
3.18065
3.22787
3.30449
3.49029
3.78192
4.58216
6.69081
9.12337
9.67767
10.8016
13.0527
17.1863
24.3859
42.9208
66.5556
91.2011
110.279
2.98314
3.04782
3.08384
3.11541
3.13663
3.15876
3.18408
3.22958
3.30513
3.48693
3.74352
4.44097
6.37884
8.85286
9.49917
10.7248
13.0283
17.5738
30.332
51.6815
70.4922
92.2003
110.312
2.988
3.05205
3.08201
3.11654
3.14028
3.16052
3.18709
3.22827
3.30444
3.48329
3.71992
4.38688
6.21146
8.70519
9.41249
10.7196
13.1931
22.3185
42.1168
62.7542
76.6756
93.8333
110.451
2.98855
3.05447
3.08376
3.11594
3.13824
3.1598
3.18528
3.22914
3.30462
3.48028
3.70976
4.36058
6.03497
8.61928
9.36949
10.7222
13.7099
29.5977
50.2494
68.5469
80.566
96.5352
109.587
2.99461
3.05679
3.08385
3.11574
3.13746
3.16165
3.18444
3.2272
3.30429
3.477
3.69636
4.32528
5.99692
8.50301
9.3894
10.7222
14.5857
35.2469
54.6912
71.9416
82.7792
95.2555
109.427
2.99124
3.05278
3.08733
3.12016
3.1373
3.16318
3.18588
3.22696
3.30357
3.47461
3.69642
4.32769
5.95461
8.5053
9.38294
10.7352
15.6957
39.6447
59.0091
72.5786
82.7456
95.3376
109.062
2.98992
3.0542
3.08368
3.11766
3.13707
3.16005
3.18484
3.22742
3.3026
3.4719
3.69201
4.32447
5.94219
8.48936
9.3893
10.7479
16.6987
42.3469
59.7425
72.861
82.5654
95.395
108.046
2.99052
3.05525
3.08316
3.11689
3.13711
3.15978
3.18425
3.22502
3.30107
3.46945
3.69418
4.31777
5.9098
8.46305
9.38973
10.7474
17.9004
41.6596
62.0719
73.9716
82.8925
94.7392
107.527
2.99353
3.04993
3.08266
3.11661
3.13596
3.15933
3.18395
3.22458
3.30055
3.4679
3.69396
4.31437
5.88042
8.45195
9.35435
10.8065
18.4284
41.5753
61.1479
72.7816
82.4535
94.6532
107.27
2.99584
3.04893
3.08763
3.11532
3.13607
3.15942
3.18271
3.22398
3.299
3.46802
3.69344
4.31387
5.90564
8.40769
9.36837
10.8966
18.4675
41.829
61.1432
72.781
83.8081
96.5749
109.098
2.98914
3.04984
3.08466
3.11828
3.13512
3.16114
3.18231
3.22429
3.29991
3.46841
3.68862
4.3039
5.92493
8.4064
9.42879
11.0691
19.4363
42.0457
61.7135
74.0764
84.4442
96.7533
109.23
2.98811
3.04384
3.08346
3.11394
3.13423
3.15673
3.18284
3.22316
3.29703
3.46071
3.67065
4.2488
5.82001
8.29909
9.41311
11.1783
19.0879
41.0819
61.906
72.1187
82.8796
94.9646
105.37
2.9921
3.04907
3.08228
3.11496
3.13584
3.15578
3.18116
3.21749
3.2934
3.45437
3.65471
4.20003
5.69701
8.17356
9.49194
11.3594
18.0556
40.7292
60.3944
69.7772
79.5234
91.1648
101.007
2.98481
3.0426
3.08293
3.10794
3.13445
3.15761
3.17897
3.21565
3.28944
3.44625
3.64015
4.15506
5.58288
8.08288
9.635
11.7162
17.6994
38.5639
56.8892
67.1713
75.8182
86.8988
96.1765
2.98496
3.0457
3.08083
3.10626
3.13213
3.15739
3.17618
3.21672
3.28475
3.43892
3.62585
4.11167
5.47747
7.9277
9.81858
12.0529
16.8114
35.4337
52.5166
64.0976
72.2728
82.6394
91.2818
2.98095
3.04534
3.07605
3.1075
3.12616
3.1546
3.17006
3.21499
3.27939
3.43047
3.61271
4.07232
5.35632
7.79393
10.1173
12.4755
17.3673
33.4828
49.1633
61.0992
67.6485
77.7452
86.4025
2.97558
3.04172
3.07194
3.10598
3.1186
3.15037
3.15892
3.20909
3.27251
3.42158
3.59847
4.03279
5.27913
7.48652
10.4225
12.9944
18.0532
31.4967
46.1184
57.2841
64.8563
74.2263
81.7154
2.96904
3.03546
3.06845
3.10201
3.11428
3.1449
3.15482
3.20138
3.26481
3.41269
3.58454
3.99645
5.17845
7.48809
10.9099
13.8344
18.6976
28.885
43.1783
53.4646
59.2404
70.4841
77.4347
2.96049
3.02741
3.05746
3.09375
3.10756
3.13874
3.15612
3.19245
3.25505
3.4002
3.56839
3.96007
5.07971
7.54381
11.5888
14.5263
20.0694
28.1628
41.6717
49.5431
57.0735
66.8938
73.1019
2.94783
3.01547
3.05104
3.08514
3.10133
3.13168
3.15116
3.18278
3.24419
3.38753
3.55208
3.926
5.01457
7.66507
12.2819
16.2431
21.3685
27.8185
39.6442
45.3685
56.7299
64.2979
68.7966
2.94432
3.0004
3.03712
3.07352
3.09237
3.11947
3.14317
3.17163
3.23114
3.36895
3.53289
3.89292
4.91657
7.81859
12.0439
18.1123
22.4331
26.2498
37.344
44.1773
54.4809
60.7404
65.423
2.92128
2.97491
3.02245
3.06
3.07662
3.10797
3.13026
3.15869
3.21673
3.34967
3.51245
3.86068
4.84033
7.90183
11.9992
19.547
22.1327
27.3794
35.3408
44.4444
52.7014
57.8511
61.0337
2.92114
2.96208
3.00874
3.0444
3.06147
3.09284
3.11562
3.14176
3.19906
3.32688
3.48933
3.82829
4.80967
8.07345
12.4284
19.2734
22.822
26.1675
33.7096
43.2024
48.9288
53.566
56.7808
2.90484
2.93577
2.99235
3.02213
3.04417
3.0755
3.09661
3.12116
3.17923
3.30449
3.46412
3.79707
4.63634
8.0766
13.3045
19.2672
21.7096
25.3367
32.3918
40.6649
46.0235
49.9463
53.9658
2.88488
2.93532
2.97554
2.99863
3.02726
3.05206
3.07709
3.10128
3.15623
3.27716
3.43602
3.76476
4.59873
8.34183
14.326
18.8831
21.4124
25.2193
29.737
38.5254
43.5576
48.1079
53.3129
2.85947
2.91633
2.94498
2.97434
3.00478
3.02695
3.05179
3.0773
3.12949
3.246
3.40222
3.7259
4.51628
8.50653
13.9325
18.5011
21.0125
24.7337
29.3144
37.3233
42.8505
47.2341
47.7665
2.83288
2.89173
2.90984
2.95131
2.98083
2.9927
3.02495
3.05288
3.09951
3.20957
3.36523
3.68548
4.58758
8.86965
13.9236
18.122
20.6969
24.7745
30.5198
36.6792
40.5524
39.0462
42.3273
2.79894
2.85753
2.86924
2.92062
2.94832
2.95433
2.9897
3.02001
3.06307
3.16665
3.31998
3.63686
4.67497
9.34161
15.49
18.1665
20.7373
25.7422
29.7324
34.3128
34.3094
38.9991
38.5659
2.76342
2.82152
2.83298
2.8882
2.91452
2.92178
2.95487
2.98617
3.02498
3.1219
3.27245
3.58646
4.8028
9.79058
14.6755
17.9618
21.4125
24.7994
28.0151
30.6345
35.0383
34.3625
28.6061
2.71913
2.77565
2.79743
2.84453
2.86974
2.8819
2.90948
2.94008
2.97667
3.067
3.21448
3.52944
4.91927
10.6747
15.3633
18.1527
21.4313
23.7379
27.5766
30.6569
30.2723
25.7471
19.2311
2.67555
2.72981
2.76138
2.80033
2.82515
2.843
2.86536
2.89461
2.92916
3.01383
3.15561
3.47368
5.05378
10.2254
14.3053
18.5324
19.7331
23.613
26.5213
26.598
23.1799
18.3728
12.6978
2.62103
2.67237
2.70904
2.74226
2.76641
2.78823
2.80616
2.83305
2.86561
2.94408
3.08338
3.40519
5.27114
10.7835
14.1945
17.4811
19.4135
22.2047
23.2976
20.8231
17.3343
12.8824
7.92991
2.56826
2.61821
2.65542
2.68634
2.71034
2.73455
2.75051
2.77528
2.80644
2.87975
3.01195
3.35225
5.49768
10.893
14.4363
15.8107
18.2779
20.099
18.6397
16.081
12.8923
8.6362
5.01453
2.50003
2.54846
2.58267
2.61212
2.63507
2.65929
2.67363
2.69544
2.72407
2.79171
2.92514
3.26265
5.79153
10.4871
13.3427
14.6162
16.7425
16.6701
14.6157
12.4682
9.21267
5.35618
3.77525
2.43628
2.48529
2.51505
2.54432
2.56685
2.59044
2.60501
2.6248
2.65199
2.71463
2.83813
3.26822
6.38175
10.53
11.7808
13.5443
14.6998
13.2372
11.6862
9.44257
6.01782
3.79849
3.24181
2.35139
2.3996
2.4238
2.45113
2.47175
2.49276
2.50631
2.52305
2.54739
2.60582
2.73787
3.35107
6.55854
9.77607
10.523
12.1383
12.1367
10.6406
9.24037
6.63276
3.90698
3.11077
2.92305
2.27789
2.32701
2.3464
2.37256
2.39237
2.41147
2.42538
2.44075
2.46349
2.51646
2.647
3.49504
6.53892
8.76811
9.67783
10.6346
9.79015
8.62655
7.02285
4.33945
3.07415
2.80766
2.74222
2.17575
2.22035
2.2351
2.25714
2.27392
2.28903
2.30092
2.31325
2.33326
2.38745
2.56118
3.67367
6.50868
7.6957
8.65222
8.90117
7.87889
6.83831
4.85849
3.07399
2.64754
2.56329
2.53729
2.09809
2.14108
2.15237
2.17222
2.18753
2.20042
2.21351
2.22339
2.24325
2.28497
2.4953
3.89927
6.11677
6.96648
7.70033
7.38975
6.45404
5.21556
3.248
2.58374
2.45147
2.42291
2.41126
1.9774
2.00924
2.01628
2.03024
2.04132
2.04919
2.05821
2.06566
2.08295
2.15024
2.50222
4.00331
5.47586
6.08411
6.38312
5.85558
5.02762
3.57409
2.46873
2.2533
2.2168
2.20726
2.20198
1.90618
1.93518
1.93902
1.95312
1.96526
1.97206
1.9694
1.98784
1.99529
2.04185
2.53073
3.96223
5.0643
5.62836
5.69379
5.06329
3.94643
2.59098
2.20107
2.13188
2.11491
2.10908
2.10532
1.74243
1.75041
1.7482
1.7496
1.7489
1.74934
1.76222
1.75548
1.78643
1.93513
2.62837
3.6334
4.15247
4.36158
3.94629
3.23564
2.35034
1.93612
1.85177
1.8403
1.84035
1.83993
1.83805
3.09719
2.78684
2.59202
2.47503
2.38891
2.34087
2.29989
2.27644
2.25472
2.24304
2.23507
2.23825
2.24895
2.27422
2.32131
2.40019
2.52303
2.6944
2.83918
3.01505
3.22281
3.36847
3.49756
3.10588
2.79461
2.599
2.48508
2.40107
2.35059
2.30688
2.28161
2.25817
2.24653
2.2368
2.23949
2.24956
2.27371
2.31948
2.39666
2.51873
2.68253
2.83899
3.01176
3.22191
3.36629
3.48816
3.11685
2.81471
2.6189
2.49924
2.40907
2.35532
2.31064
2.28428
2.26066
2.24815
2.23771
2.24026
2.24971
2.27317
2.31759
2.3924
2.51246
2.67234
2.82866
3.00719
3.1985
3.34506
3.47302
3.12927
2.8248
2.62593
2.50544
2.41993
2.36629
2.32013
2.2913
2.26486
2.25104
2.23952
2.24136
2.24996
2.27156
2.31538
2.38592
2.50474
2.65937
2.82511
2.9891
3.19297
3.34278
3.48561
3.13798
2.83968
2.64646
2.52655
2.43425
2.37471
2.32521
2.29458
2.26741
2.25368
2.24063
2.24173
2.25007
2.2689
2.31583
2.37925
2.50479
2.64554
2.80858
2.97853
3.16754
3.33048
3.47741
3.14655
2.85257
2.65786
2.53142
2.4371
2.37643
2.32676
2.29594
2.26835
2.25441
2.24104
2.24184
2.2505
2.26902
2.32295
2.38071
2.50652
2.62585
2.81751
2.95626
3.16401
3.3171
3.47316
3.15083
2.85889
2.66307
2.53741
2.4434
2.38251
2.33218
2.30112
2.27326
2.25979
2.24634
2.24782
2.25646
2.27293
2.32729
2.38566
2.51168
2.63569
2.82643
2.96664
3.18095
3.31987
3.50124
3.1467
2.85451
2.6586
2.5294
2.43323
2.36961
2.32327
2.29728
2.27177
2.25921
2.24611
2.24768
2.25663
2.27482
2.3246
2.38577
2.51162
2.64475
2.84471
2.99832
3.20893
3.36021
3.54941
2.96154
2.62389
2.45977
2.36769
2.3075
2.27201
2.24708
2.23424
2.22113
2.21805
2.2182
2.22581
2.24745
2.2904
2.36721
2.4967
2.68866
2.9801
3.21981
3.55957
3.83238
4.20643
4.48274
2.9721
2.63071
2.4638
2.3714
2.31118
2.27468
2.24947
2.23635
2.22285
2.21969
2.21931
2.22667
2.24728
2.28986
2.36457
2.48943
2.6728
2.952
3.17686
3.51174
3.75107
4.13426
4.36066
2.97327
2.63602
2.47133
2.3764
2.31546
2.27826
2.25246
2.23863
2.22456
2.22131
2.22039
2.22734
2.24738
2.2882
2.35911
2.47749
2.65361
2.92179
3.13041
3.44751
3.67016
4.02987
4.2502
2.9846
2.64398
2.47619
2.38017
2.31939
2.28136
2.25449
2.24088
2.22626
2.223
2.22159
2.22833
2.2478
2.28769
2.35711
2.47156
2.63915
2.89322
3.0904
3.38993
3.60436
3.94435
4.15164
2.98708
2.65013
2.48461
2.38634
2.32421
2.28576
2.25744
2.24359
2.22829
2.22482
2.22286
2.22919
2.24805
2.28672
2.35327
2.46233
2.62193
2.86403
3.05103
3.33765
3.54026
3.85952
4.05926
2.99962
2.65975
2.49025
2.39059
2.32802
2.28921
2.25954
2.24595
2.23028
2.22664
2.22409
2.23023
2.24812
2.28616
2.35177
2.45845
2.61071
2.83956
3.01795
3.29279
3.48673
3.78802
3.98841
3.00327
2.66692
2.49948
2.39818
2.33374
2.29447
2.26264
2.2491
2.2326
2.22851
2.22534
2.2311
2.24823
2.285
2.34838
2.45105
2.59755
2.81652
2.98601
3.24963
3.43231
3.70808
3.90469
3.01712
2.67896
2.50578
2.4036
2.33734
2.29802
2.26513
2.25162
2.23501
2.23026
2.22647
2.23201
2.24831
2.28325
2.34548
2.44654
2.5917
2.80148
2.96478
3.22035
3.39617
3.64858
3.85165
3.02165
2.68705
2.51608
2.41242
2.34411
2.30388
2.26899
2.25499
2.23751
2.23208
2.22766
2.23288
2.24839
2.282
2.34185
2.43873
2.58413
2.78611
2.94004
3.18001
3.34522
3.57144
3.77766
3.03683
2.7023
2.52305
2.41927
2.34775
2.30748
2.27185
2.2576
2.24008
2.23347
2.22861
2.23359
2.24844
2.2807
2.33832
2.43325
2.57792
2.77695
2.92713
3.15745
3.31835
3.53595
3.73314
3.04184
2.7108
2.5348
2.42919
2.3557
2.3137
2.27689
2.26111
2.24269
2.2352
2.22972
2.23439
2.24853
2.2794
2.33478
2.42649
2.5654
2.76068
2.90507
3.12483
3.28207
3.48491
3.67283
3.05789
2.72951
2.54284
2.43694
2.35972
2.31763
2.28007
2.26355
2.24497
2.23624
2.23062
2.23507
2.24863
2.27856
2.33291
2.42185
2.55087
2.74885
2.89288
3.10582
3.26379
3.45208
3.62487
3.06338
2.73769
2.55585
2.44802
2.369
2.32437
2.28594
2.2674
2.24776
2.23822
2.23195
2.2361
2.24878
2.27758
2.32978
2.4155
2.54345
2.73478
2.875
3.07935
3.24616
3.41871
3.5943
3.07904
2.75883
2.5658
2.45566
2.37344
2.32871
2.2896
2.2696
2.24966
2.23924
2.23281
2.23673
2.24868
2.27672
2.32782
2.41191
2.53644
2.72319
2.86275
3.05964
3.23291
3.3945
3.56528
3.08512
2.76681
2.57872
2.46772
2.38385
2.33644
2.29559
2.27381
2.25264
2.24161
2.23423
2.23762
2.24888
2.27581
2.32523
2.4066
2.52965
2.71101
2.85208
3.04232
3.22683
3.39172
3.53612
2.88752
2.5571
2.40064
2.3144
2.26297
2.2304
2.2074
2.20293
2.21684
2.24356
2.28535
2.34662
2.45094
2.60608
2.84633
3.17019
3.55489
4.07501
4.57681
5.32714
5.84381
6.5865
7.04154
2.89128
2.55976
2.40368
2.31808
2.26634
2.23241
2.20785
2.20243
2.20346
2.21747
2.24947
2.30027
2.39035
2.53286
2.76817
3.07513
3.44596
3.9954
4.48357
5.23149
5.7517
6.49488
6.94334
2.89279
2.55999
2.40485
2.32027
2.26826
2.23353
2.20906
2.19963
2.19563
2.20363
2.22909
2.27418
2.35494
2.48952
2.70895
3.01837
3.38967
3.92696
4.41283
5.16884
5.67045
6.43396
6.86342
2.89661
2.5614
2.4067
2.32249
2.27102
2.23583
2.21142
2.20141
2.19451
2.19702
2.2127
2.24778
2.31622
2.43925
2.64794
2.94339
3.30507
3.85247
4.31899
5.05941
5.55423
6.32629
6.75225
2.89784
2.56247
2.40806
2.32458
2.27307
2.23781
2.21389
2.20351
2.19608
2.19695
2.20798
2.23739
2.29739
2.41001
2.60105
2.88667
3.24017
3.77679
4.25164
4.9898
5.48195
6.25299
6.68703
2.90141
2.56432
2.40921
2.32577
2.27468
2.23909
2.21595
2.20492
2.19674
2.19586
2.20349
2.22547
2.27587
2.37844
2.55531
2.82799
3.17757
3.70863
4.15987
4.88859
5.37674
6.1538
6.57273
2.90252
2.56614
2.41095
2.32777
2.27671
2.24119
2.21873
2.20759
2.19929
2.19758
2.20391
2.22499
2.27148
2.36271
2.52426
2.78021
3.11747
3.63479
4.09606
4.80863
5.28963
6.05667
6.49849
2.90585
2.56829
2.41205
2.32879
2.27823
2.24225
2.22096
2.20947
2.20107
2.19896
2.20542
2.22218
2.26231
2.34783
2.49811
2.74052
3.07676
3.57855
4.0148
4.71978
5.20162
5.96543
6.38649
2.90692
2.57073
2.41424
2.33061
2.27978
2.24369
2.22268
2.21096
2.203
2.20037
2.2061
2.22223
2.2624
2.33958
2.47767
2.70365
3.02775
3.5132
3.9559
4.6393
5.10802
5.85466
6.30091
2.91025
2.57305
2.41575
2.33168
2.28169
2.24516
2.22482
2.21265
2.20498
2.20242
2.20794
2.22322
2.25942
2.33495
2.46759
2.68281
3.00556
3.47097
3.88881
4.55926
5.02576
5.75443
6.18577
2.91141
2.57585
2.4185
2.33358
2.28281
2.24622
2.22592
2.21352
2.20599
2.20347
2.20886
2.22362
2.25962
2.32966
2.45551
2.65953
2.97226
3.4179
3.8392
4.48666
4.94017
5.64336
6.09689
2.91498
2.57823
2.42047
2.33465
2.28488
2.24802
2.22775
2.21484
2.20742
2.20537
2.21033
2.22378