/*--------------------------------*- C++ -*----------------------------------*\
  =========                 |
  \\      /  F ield         | OpenFOAM: The Open Source CFD Toolbox
   \\    /   O peration     | Website:  https://openfoam.org
    \\  /    A nd           | Version:  7
     \\/     M anipulation  |
\*---------------------------------------------------------------------------*/
FoamFile
{
    version     2.0;
    format      ascii;
    class       volScalarField;
    location    "84";
    object      p;
}
// * * * * * * * * * * * * * * * * * * * * * * * * * * * * * * * * * * * * * //

dimensions      [0 2 -2 0 0 0 0];

internalField   nonuniform List<scalar> 
12842
(
1.2502
1.32236
1.37601
1.47526
1.62665
1.82233
2.0614
2.35722
2.74025
3.25579
3.95585
4.88627
6.0728
7.5091
9.15149
10.9256
12.743
14.5205
16.1933
17.7203
19.0834
20.2749
21.3085
0.999996
1.07355
1.09841
1.14787
1.22437
1.31308
1.40698
1.51613
1.67352
1.93244
2.35779
3.01083
3.93231
5.12633
6.5533
8.13997
9.7999
11.4548
13.047
14.5393
15.9125
17.1457
18.2477
0.802202
0.865817
0.86611
0.870116
0.877864
0.865772
0.820409
0.749744
0.691405
0.707546
0.876721
1.27517
1.95702
2.9329
4.16179
5.56588
7.05759
8.56418
10.0381
11.4489
12.78
13.997
15.1119
0.641792
0.695549
0.671033
0.631083
0.575555
0.467087
0.286587
0.0411407
-0.22521
-0.441424
-0.514224
-0.352549
0.110176
0.887514
1.93165
3.15512
4.46677
5.80061
7.12241
8.411
9.65494
10.8065
11.8877
0.507381
0.55864
0.505172
0.423979
0.311996
0.111293
-0.199308
-0.613228
-1.07927
-1.51866
-1.82211
-1.88431
-1.62639
-1.03504
-0.169094
0.870014
1.98611
3.12143
4.25834
5.38668
6.50324
7.54748
8.55841
0.393455
0.44984
0.361913
0.246023
0.085691
-0.202177
-0.634492
-1.20667
-1.86089
-2.51256
-3.03547
-3.31152
-3.2491
-2.83774
-2.14993
-1.30413
-0.402368
0.507302
1.42677
2.35841
3.31071
4.21068
5.12123
0.297038
0.363405
0.23686
0.0966691
-0.104068
-0.47251
-1.01436
-1.7306
-2.55843
-3.40899
-4.13923
-4.62009
-4.74628
-4.51213
-4.00455
-3.36155
-2.69208
-2.03395
-1.36308
-0.663738
0.0886662
0.807615
1.58937
0.216322
0.2938
0.127488
-0.0251813
-0.260197
-0.700465
-1.3365
-2.17982
-3.16525
-4.20101
-5.12913
-5.81163
-6.12757
-6.07579
-5.7549
-5.32372
-4.89961
-4.5124
-4.11488
-3.67988
-3.15973
-2.6624
-2.03644
0.142085
0.236702
0.0361588
-0.113408
-0.374746
-0.868719
-1.57423
-2.51301
-3.62147
-4.80034
-5.88262
-6.72058
-7.18038
-7.26603
-7.08645
-6.82354
-6.60485
-6.45636
-6.30774
-6.12593
-5.82635
-5.56569
-5.09227
0.0713749
0.185732
-0.0452368
-0.182375
-0.469858
-1.00463
-1.76609
-2.77965
-3.98805
-5.27733
-6.47822
-7.4296
-7.99026
-8.16944
-8.08688
-7.94769
-7.89041
-7.94024
-8.00889
-8.05769
-7.97048
-7.923
-7.62377
0.0139341
0.142436
-0.113563
-0.235841
-0.554298
-1.12321
-1.93823
-3.02176
-4.32739
-5.72211
-7.03997
-8.10317
-8.76664
-9.04266
-9.06142
-9.0506
-9.16091
-9.42017
-9.72493
-10.0322
-10.1928
-10.3916
-10.3037
-0.0319772
0.105329
-0.166696
-0.275007
-0.626794
-1.22196
-2.08783
-3.2365
-4.63566
-6.13229
-7.56772
-8.74599
-9.5207
-9.90336
-10.0332
-10.1586
-10.444
-10.9241
-11.4832
-12.0759
-12.5178
-13
-13.152
-0.0700897
0.0726084
-0.205564
-0.304126
-0.688615
-1.30304
-2.21726
-3.42711
-4.91593
-6.51263
-8.06768
-9.36687
-10.2638
-10.7642
-11.014
-11.2805
-11.7438
-12.4515
-13.2796
-14.1813
-14.9341
-15.736
-16.1604
-0.103356
0.0436541
-0.232232
-0.327917
-0.74181
-1.37095
-2.33159
-3.60022
-5.17545
-6.87242
-8.55026
-9.97788
-11.0087
-11.6371
-12.0129
-12.4201
-13.0583
-13.9936
-15.0991
-16.3261
-17.4135
-18.5624
-19.2946
-0.134123
0.0191075
-0.249535
-0.349632
-0.787621
-1.42965
-2.43482
-3.76103
-5.4197
-7.21815
-9.02177
-10.5851
-11.7598
-12.5237
-13.0269
-13.5676
-14.3701
-15.5257
-16.9107
-18.4709
-19.9149
-21.4231
-22.4977
-0.164742
-1.66181e-05
-0.260734
-0.370838
-0.826476
-1.48162
-2.52878
-3.91183
-5.65083
-7.55214
-9.48347
-11.1887
-12.5149
-13.4185
-14.0456
-14.7068
-15.656
-17.0175
-18.6782
-20.5726
-22.395
-24.2681
-25.7238
-0.195476
-0.0131766
-0.268975
-0.391617
-0.858495
-1.52792
-2.61352
-4.05237
-5.86807
-7.87297
-9.93278
-11.7851
-13.269
-14.3157
-15.0624
-15.8293
-16.9052
-18.4542
-20.3819
-22.6066
-24.8232
-27.0705
-28.9362
-0.225876
-0.0204292
-0.276498
-0.411109
-0.883856
-1.56861
-2.68839
-4.18123
-6.06964
-8.17803
-10.3665
-12.3714
-14.0198
-15.2146
-16.0779
-16.9358
-18.1143
-19.8253
-22.001
-24.5423
-27.1532
-29.7797
-32.0657
-0.254809
-0.0225812
-0.28461
-0.428227
-0.903138
-1.60362
-2.75304
-4.29739
-6.25445
-8.46546
-10.783
-12.9467
-14.7685
-16.12
-17.0994
-18.0328
-19.2836
-21.1185
-23.5046
-26.3299
-29.3117
-32.3118
-35.0145
-0.281317
-0.020894
-0.293648
-0.442208
-0.917215
-1.63305
-2.80791
-4.40103
-6.42319
-8.73599
-11.184
-13.5144
-15.5214
-17.042
-18.1399
-19.1325
-20.4158
-22.3174
-24.8492
-27.8963
-31.1963
-34.5466
-37.6481
-0.304348
-0.0169982
-0.303365
-0.452984
-0.927373
-1.65744
-2.85402
-4.49289
-6.57697
-8.9906
-11.5712
-14.0774
-16.2843
-17.99
-19.2112
-20.2439
-21.5075
-23.3925
-25.9678
-29.1285
-32.6481
-36.2943
-39.7541
-0.323778
-0.012225
-0.313116
-0.460399
-0.934069
-1.67707
-2.89266
-4.57519
-6.71905
-9.23339
-11.9493
-14.6411
-17.0634
-18.9718
-20.3212
-21.3694
-22.5443
-24.298
-26.7691
-29.8789
-33.4563
-37.2783
-40.9976
-0.338518
-0.00783717
-0.322159
-0.46577
-0.939031
-1.69282
-2.9246
-4.64751
-6.84878
-9.46328
-12.3179
-15.2065
-17.8632
-19.9971
-21.4838
-22.5201
-23.5214
-24.9923
-27.1554
-29.9826
-33.3794
-37.1588
-40.9417
-0.34847
-0.00411995
-0.327984
-0.464955
-0.938231
-1.70231
-2.95
-4.71159
-6.96511
-9.67066
-12.6515
-15.7258
-18.6125
-20.9797
-22.6128
-23.6235
-24.3838
-25.4235
-27.0451
-29.3093
-32.2448
-35.6909
-39.1557
-0.365048
-0.00565457
-0.334587
-0.463668
-0.937222
-1.71053
-2.973
-4.76847
-7.06661
-9.85032
-12.9412
-16.1861
-19.2941
-21.9001
-23.6924
-24.6706
-25.1275
-25.5737
-26.3721
-27.7278
-29.8486
-32.5582
-35.2513
-0.374655
-0.00539838
-0.336906
-0.459672
-0.935898
-1.72087
-3.00225
-4.83468
-7.1809
-10.0438
-13.2451
-16.6608
-19.9937
-22.8486
-24.8093
-25.7373
-25.8149
-25.4954
-25.2041
-25.372
-26.3844
-27.9943
-29.5916
-0.376311
-0.00246789
-0.334116
-0.452984
-0.933983
-1.73168
-3.03387
-4.90199
-7.29555
-10.2332
-13.5412
-17.1254
-20.6879
-23.8078
-25.9599
-26.8445
-26.5012
-25.2979
-23.7475
-22.5736
-22.2821
-22.5526
-22.8795
-0.374229
0.00169057
-0.328511
-0.445832
-0.932899
-1.74316
-3.06615
-4.96594
-7.40348
-10.4085
-13.8189
-17.5699
-21.3708
-24.7801
-27.1629
-28.0409
-27.2839
-25.1629
-22.3007
-19.7032
-17.9959
-16.8925
-15.9248
-0.37132
0.00585357
-0.322611
-0.440716
-0.934858
-1.75717
-3.10037
-5.0276
-7.5059
-10.5721
-14.0821
-18.0003
-22.0521
-25.7821
-28.4516
-29.396
-28.2927
-25.3127
-21.1662
-17.0749
-13.9493
-11.6016
-9.42304
-0.369138
0.00948354
-0.318103
-0.439121
-0.941086
-1.77492
-3.13769
-5.08908
-7.60601
-10.7294
-14.3385
-18.4259
-22.7428
-26.8289
-29.8564
-30.9807
-29.669
-25.9712
-20.6043
-15.0331
-10.6633
-7.25482
-3.9709
-0.368831
0.0122151
-0.31589
-0.441101
-0.951054
-1.79563
-3.1769
-5.14994
-7.70368
-10.8818
-14.5894
-18.848
-23.4432
-27.9222
-31.3921
-32.8506
-31.5502
-27.3427
-20.875
-14.0529
-8.72774
-4.36011
-0.0336543
-0.371023
0.0140379
-0.315937
-0.445605
-0.962935
-1.81702
-3.21511
-5.20767
-7.79611
-11.027
-14.832
-19.2626
-24.1476
-29.0575
-33.0655
-35.0536
-34.0636
-29.6209
-22.3126
-14.7166
-8.77811
-3.52087
1.77055
-0.375537
0.0152458
-0.31755
-0.450924
-0.974428
-1.83651
-3.24932
-5.25959
-7.88027
-11.1622
-15.0621
-19.6639
-24.8485
-30.2272
-34.8793
-37.629
-37.3149
-33.0278
-25.4088
-17.6956
-11.5574
-5.70694
0.287416
-0.381447
0.0164667
-0.319614
-0.455427
-0.983668
-1.85233
-3.27784
-5.30458
-7.95516
-11.2864
-15.2785
-20.0497
-25.5418
-31.427
-36.8387
-40.6131
-41.4003
-37.841
-30.7799
-23.8143
-18.1289
-12.3793
-6.43693
-0.387642
0.0182043
-0.321205
-0.457994
-0.989704
-1.86395
-3.30064
-5.34334
-8.02191
-11.4011
-15.4819
-20.4194
-26.2248
-32.6521
-38.9454
-44.0318
-46.4068
-44.3539
-38.991
-33.8156
-29.4901
-24.8094
-19.8934
-0.393178
0.0207789
-0.321737
-0.45831
-0.992641
-1.8721
-3.31916
-5.37803
-8.08332
-11.5093
-15.6753
-20.7747
-26.8963
-33.898
-41.1958
-47.8924
-52.3942
-52.768
-50.2366
-47.6366
-45.1329
-41.8022
-37.942
-0.397587
0.0241211
-0.32115
-0.456668
-0.993297
-1.87818
-3.3355
-5.41121
-8.14244
-11.6139
-15.8611
-21.1162
-27.5527
-35.1538
-43.5704
-52.1679
-59.3612
-63.0673
-64.1465
-64.2832
-63.3382
-60.9396
-57.6434
-0.40074
0.0280307
-0.319627
-0.453766
-0.992818
-1.88376
-3.35164
-5.44501
-8.20162
-11.717
-16.0407
-21.443
-28.1883
-36.4041
-46.0339
-56.7971
-67.2305
-74.986
-79.9694
-82.5329
-82.658
-80.7469
-77.6851
-0.402833
0.0321508
-0.317549
-0.450309
-0.992206
-1.89001
-3.36889
-5.48049
-8.26176
-11.8187
-16.2132
-21.7519
-28.794
-37.626
-48.5317
-61.6734
-75.8217
-88.1128
-96.8429
-101.372
-102.253
-100.674
-97.8121
-0.404121
0.0362449
-0.315195
-0.446894
-0.99215
-1.89751
-3.3877
-5.5176
-8.32245
-11.9179
-16.3767
-22.0385
-29.3589
-38.7932
-50.9963
-66.6592
-84.8588
-101.918
-113.925
-119.944
-121.426
-120.127
-117.395
-0.404937
0.0400937
-0.312811
-0.443818
-0.992891
-1.90625
-3.40776
-5.55537
-8.38225
-12.0123
-16.5279
-22.2972
-29.8708
-39.8754
-53.3466
-71.6006
-94.0287
-115.71
-130.407
-137.514
-139.547
-138.733
-136.452
-0.405494
0.0436727
-0.310439
-0.441191
-0.994366
-1.91582
-3.42829
-5.5925
-8.43942
-12.0997
-16.664
-22.5234
-30.3184
-40.8409
-55.497
-76.3175
-103.003
-128.813
-145.568
-153.485
-156.08
-155.78
-154.131
-0.406006
0.0469676
-0.308102
-0.4389
-0.99627
-1.9256
-3.4484
-5.62763
-8.49239
-12.1781
-16.7826
-22.7132
-30.6905
-41.6587
-57.3736
-80.5992
-111.38
-140.657
-158.751
-167.05
-169.964
-169.912
-168.212
-0.40654
0.0501072
-0.305691
-0.436796
-0.998265
-1.935
-3.46731
-5.65982
-8.54012
-12.2464
-16.8827
-22.8642
-30.9777
-42.3013
-58.8864
-84.2291
-118.71
-150.757
-169.524
-177.815
-180.901
-181.265
-179.636
-0.40718
0.0531591
-0.303158
-0.434657
-1
-1.94354
-3.48451
-5.68854
-8.58223
-12.3044
-16.9637
-22.975
-31.1724
-42.7408
-59.9286
-87.0283
-124.602
-158.757
-177.743
-185.77
-188.769
-189.565
-188.679
-0.407885
0.0562817
-0.300389
-0.432342
-1.00126
-1.95097
-3.49981
-5.71377
-8.61888
-12.3526
-17.0264
-23.0453
-31.2692
-42.9537
-60.4337
-88.8644
-128.787
-164.479
-183.501
-191.309
-194.24
-194.779
-193.569
-0.408672
0.0595011
-0.297382
-0.429701
-1.00189
-1.95719
-3.51329
-5.73586
-8.65078
-12.3919
-17.0718
-23.0759
-31.2643
-42.9228
-60.3695
-89.5899
-131.083
-167.878
-186.984
-194.688
-197.696
-197.892
-196.153
-0.409369
0.0630112
-0.294014
-0.426653
-1.00186
-1.9623
-3.52525
-5.75545
-8.67889
-12.4238
-17.1018
-23.0683
-31.1556
-42.633
-59.71
-89.0436
-131.333
-168.856
-188.015
-195.334
-198.055
-197.701
-195.773
-0.409718
0.0666091
-0.29033
-0.423095
-1.00113
-1.9665
-3.53644
-5.77427
-8.70647
-12.4542
-17.1267
-23.0421
-30.975
-42.1326
-58.5442
-87.3003
-129.692
-167.691
-186.804
-193.267
-194.708
-194.007
-192.694
-0.412217
0.0695135
-0.287155
-0.419328
-1.00002
-1.97049
-3.54858
-5.79618
-8.74118
-12.4978
-17.1752
-23.0532
-30.8371
-41.6475
-57.253
-85.0012
-127.032
-165.307
-184.146
-189.415
-190.012
-188.907
-187.474
-0.413895
0.0732917
-0.283054
-0.414218
-0.997899
-1.97433
-3.5629
-5.82422
-8.7887
-12.5648
-17.2657
-23.1387
-30.8311
-41.377
-56.2124
-82.8911
-124.285
-162.529
-180.919
-185.098
-184.999
-183.493
-181.644
-0.414447
0.0781356
-0.277697
-0.407508
-0.994659
-1.97819
-3.57985
-5.85903
-8.84935
-12.6542
-17.3956
-23.2946
-30.9586
-41.35
-55.5528
-81.2855
-121.877
-159.777
-177.514
-180.888
-179.718
-177.61
-175.353
-0.414233
0.0836442
-0.271317
-0.399446
-0.990676
-1.98255
-3.59981
-5.90037
-8.9213
-12.7609
-17.5541
-23.4984
-31.1749
-41.5251
-55.2999
-80.2688
-119.962
-157.246
-174.092
-176.618
-174.078
-171.39
-168.626
-0.413258
0.0896214
-0.264058
-0.390469
-0.986555
-1.9882
-3.62342
-5.94832
-9.00311
-12.8804
-17.7308
-23.7291
-31.4444
-41.8378
-55.4062
-79.7906
-118.52
-154.961
-170.705
-172.162
-168.269
-165.053
-161.786
-0.411602
0.0958217
-0.25629
-0.381158
-0.982982
-1.99574
-3.65072
-6.0018
-9.0915
-13.0064
-17.9125
-23.9662
-31.7419
-42.2069
-55.7639
-79.7103
-117.424
-152.837
-167.298
-167.563
-162.723
-158.901
-155.182
-0.409303
0.102069
-0.248253
-0.372015
-0.980524
-2.0058
-3.6822
-6.06114
-9.18617
-13.1382
-18.096
-24.2086
-32.0719
-42.6235
-56.3359
-79.9841
-116.684
-150.968
-164.027
-162.973
-157.472
-153.07
-149.032
-0.406946
0.108181
-0.240435
-0.36343
-0.979488
-2.01844
-3.71738
-6.12503
-9.28455
-13.2719
-18.2745
-24.4445
-32.4068
-43.0516
-56.9879
-80.3372
-115.818
-148.577
-160.07
-157.699
-151.721
-146.896
-142.671
-0.403517
0.114809
-0.231719
-0.354404
-0.978345
-2.03114
-3.75189
-6.1862
-9.37464
-13.3885
-18.4168
-24.6252
-32.6614
-43.3801
-57.5167
-80.5072
-114.662
-145.753
-155.779
-152.29
-145.953
-140.895
-136.512
-0.400305
0.120742
-0.223933
-0.346918
-0.979238
-2.04609
-3.78773
-6.24639
-9.45797
-13.4897
-18.5235
-24.7452
-32.803
-43.5657
-57.8193
-80.3325
-112.961
-142.195
-150.93
-146.765
-140.317
-135.222
-130.68
-0.397455
0.125866
-0.217322
-0.341256
-0.982232
-2.06309
-3.82451
-6.30532
-9.53516
-13.5777
-18.6008
-24.8119
-32.8269
-43.5921
-57.8503
-79.7534
-110.613
-137.744
-145.3
-140.808
-134.446
-129.389
-124.737
-0.39487
0.130487
-0.211509
-0.336659
-0.986165
-2.08049
-3.86014
-6.36064
-9.60427
-13.6515
-18.6517
-24.8324
-32.744
-43.4689
-57.6089
-78.7495
-107.629
-132.456
-138.959
-134.333
-128.146
-123.093
-118.404
-0.392468
0.134894
-0.206135
-0.332572
-0.990175
-2.0971
-3.89328
-6.41101
-9.66477
-13.7116
-18.6806
-24.8167
-32.58
-43.2257
-57.1322
-77.3547
-104.109
-126.518
-132.103
-127.44
-121.436
-116.329
-111.652
-0.390332
0.139161
-0.201042
-0.328548
-0.993686
-2.11228
-3.92351
-6.45652
-9.71812
-13.7609
-18.6946
-24.7761
-32.3661
-42.8902
-56.4616
-75.6388
-100.184
-120.152
-124.915
-120.263
-114.418
-109.206
-104.655
-0.388357
0.143477
-0.195931
-0.324263
-0.996358
-2.12576
-3.95099
-6.49792
-9.76644
-13.8032
-18.7004
-24.7199
-32.1315
-42.4815
-55.6352
-73.6898
-95.9978
-113.555
-117.536
-112.916
-107.194
-101.88
-97.528
-0.386483
0.147927
-0.190598
-0.319378
-0.997912
-2.13745
-3.97603
-6.53613
-9.81158
-13.8412
-18.7035
-24.656
-31.9002
-42.0178
-54.6965
-71.5959
-91.7009
-106.857
-110.103
-105.585
-99.8718
-94.5047
-90.2661
-0.384544
0.152638
-0.184845
-0.313839
-0.99842
-2.14767
-3.99931
-6.57225
-9.85517
-13.8774
-18.7077
-24.5903
-31.6882
-41.5172
-53.6938
-69.4277
-87.4073
-100.203
-102.844
-98.4482
-92.5109
-87.0963
-82.8866
-0.382547
0.157536
-0.178739
-0.307717
-0.998134
-2.15693
-4.02166
-6.60743
-9.89851
-13.9133
-18.7159
-24.5272
-31.5026
-40.997
-52.6689
-67.2385
-83.1762
-93.7295
-95.8013
-91.2985
-85.0534
-79.6429
-75.4683
-0.380437
0.162592
-0.172356
-0.301324
-0.997537
-2.16591
-4.04393
-6.64263
-9.94244
-13.9501
-18.7288
-24.4685
-31.3407
-40.4699
-51.6434
-65.0595
-79.0367
-87.4878
-88.7507
-83.8386
-77.4749
-72.191
-68.101
-0.378309
0.167647
-0.165924
-0.294896
-0.996989
-2.1751
-4.06661
-6.67827
-9.98696
-13.9875
-18.7448
-24.4125
-31.1897
-39.9365
-50.6152
-62.8857
-74.9939
-81.4403
-81.6073
-76.1651
-69.9054
-64.8272
-60.7868
-0.376133
0.172676
-0.159535
-0.288704
-0.996813
-2.1848
-4.08983
-6.7142
-10.0313
-14.0241
-18.76
-24.3538
-31.032
-39.3863
-49.5563
-60.6762
-71.0205
-75.6049
-74.5573
-68.6602
-62.6508
-57.7842
-53.7359
-0.374
0.17757
-0.153338
-0.282817
-0.997057
-2.19497
-4.11329
-6.74975
-10.0739
-14.0577
-18.7694
-24.2845
-30.8511
-38.8161
-48.4302
-58.3827
-67.0642
-69.9272
-67.8156
-61.6548
-55.902
-51.2577
-47.227
-0.371856
0.182373
-0.147317
-0.277315
-0.997733
-2.20546
-4.13655
-6.78403
-10.1133
-14.0857
-18.7675
-24.196
-30.63
-38.2222
-47.2124
-55.972
-63.0755
-64.3513
-61.3892
-55.085
-49.5019
-45.0842
-41.291
-0.369776
0.187028
-0.141524
-0.272104
-0.998657
-2.21593
-4.159
-6.81615
-10.148
-14.106
-18.75
-24.0815
-30.3514
-37.5854
-45.8951
-53.4345
-59.0324
-58.8817
-55.1831
-48.7971
-43.2972
-39.0369
-35.5057
-0.367686
0.191619
-0.135874
-0.267167
-0.999722
-2.22612
-4.18021
-6.84544
-10.1771
-14.1171
-18.7141
-23.9366
-30.0034
-36.8775
-44.474
-50.7771
-54.9406
-53.5603
-49.2062
-42.7944
-37.3964
-33.3136
-29.875
-0.365658
0.196102
-0.130386
-0.262366
-1.00072
-2.23575
-4.19979
-6.87146
-10.2001
-14.1183
-18.659
-23.7601
-29.5852
-36.0811
-42.9439
-48.0199
-50.8287
-48.4329
-43.5169
-37.17
-31.9547
-28.0592
-24.9165
-0.363605
0.200565
-0.124964
-0.257691
-1.00159
-2.24471
-4.2176
-6.89408
-10.2171
-14.1096
-18.5851
-23.5532
-29.1048
-35.1945
-41.3014
-45.1904
-46.7364
-43.5387
-38.1557
-31.9679
-27.0206
-23.2592
-20.4602
-0.361602
0.204956
-0.11964
-0.253034
-1.00221
-2.25285
-4.23357
-6.91337
-10.2282
-14.0915
-18.4942
-23.3191
-28.5756
-34.2272
-39.5557
-42.3231
-42.707
-38.9163
-33.174
-27.1752
-22.4502
-18.8084
-16.1128
-0.359558
0.20935
-0.114335
-0.248429
-1.0026
-2.26023
-4.24782
-6.9295
-10.234
-14.0646
-18.3877
-23.061
-28.009
-33.191
-37.7268
-39.4546
-38.778
-34.5831
-28.5957
-22.7735
-18.1443
-14.6939
-12.0681
-0.357556
0.213681
-0.109103
-0.243809
-1.00271
-2.26682
-4.2604
-6.94265
-10.2348
-14.0294
-18.2675
-22.7819
-27.4142
-32.0972
-35.8423
-36.6218
-34.9863
-30.5341
-24.3899
-18.7346
-14.2149
-10.9193
-8.45213
-0.355497
0.218014
-0.103883
-0.239243
-1.00262
-2.27275
-4.27149
-6.953
-10.2309
-13.986
-18.1344
-22.4835
-26.7955
-30.9539
-33.9297
-33.8567
-31.3688
-26.75
-20.5357
-15.007
-10.7439
-7.62143
-5.25273
-0.353473
0.222272
-0.0987425
-0.234685
-1.00231
-2.278
-4.28113
-6.96058
-10.2222
-13.9344
-17.9886
-22.1663
-26.1556
-29.7702
-32.0136
-31.1842
-27.9758
-23.227
-17.0195
-11.62
-7.6621
-4.71584
-2.48683
-0.351379
0.226518
-0.0936284
-0.230222
-1.00186
-2.2827
-4.28939
-6.96535
-10.2086
-13.8738
-17.8295
-21.8293
-25.4945
-28.5581
-30.112
-28.6092
-24.8261
-19.9776
-13.8688
-8.67772
-4.96647
-2.17142
-0.151198
-0.349318
0.230669
-0.0886147
-0.22581
-1.00126
-2.28679
-4.29621
-6.96711
-10.1895
-13.8036
-17.6558
-21.4708
-24.8116
-27.3313
-28.2474
-26.1372
-21.9059
-16.9872
-11.0909
-6.18498
-2.63415
-0.0246238
1.76509
-0.347174
0.234788
-0.0836475
-0.221536
-1.00058
-2.29034
-4.30155
-6.96563
-10.1645
-13.7227
-17.4659
-21.088
-24.1052
-26.0961
-26.4399
-23.787
-19.1356
-14.1834
-8.61056
-4.03639
-0.656807
1.75273
3.37103
-0.345059
0.23879
-0.078801
-0.217348
-0.999763
-2.29326
-4.30524
-6.96055
-10.1328
-13.63
-17.2581
-20.6804
-23.3746
-24.8545
-24.6947
-21.5866
-16.5262
-11.5812
-6.332
-2.12425
1.01626
3.19939
4.67992
-0.342851
0.242745
-0.0740167
-0.213327
-0.998875
-2.29555
-4.30715
-6.95153
-10.0938
-13.5245
-17.0309
-20.2429
-22.6179
-23.605
-23.0006
-19.5545
-14.1698
-9.24891
-4.24914
-0.411247
2.41523
4.37395
5.69747
-0.34067
0.246567
-0.0693661
-0.20941
-0.997829
-2.29708
-4.30704
-6.93816
-10.0468
-13.4054
-16.7836
-19.7749
-21.8372
-22.3527
-21.3499
-17.6954
-12.1203
-7.23547
-2.4511
1.04253
3.56185
5.30087
6.45112
-0.338384
0.250328
-0.0647852
-0.205668
-0.996672
-2.29783
-4.30476
-6.92009
-9.99123
-13.272
-16.5151
-19.2815
-21.0376
-21.1097
-19.7534
-15.9944
-10.4046
-5.52562
-0.98076
2.19287
4.45826
5.99809
6.99316
-0.336122
0.253946
-0.0603432
-0.202028
-0.995296
-2.29764
-4.30004
-6.89695
-9.9266
-13.1239
-16.2246
-18.7653
-20.2283
-19.8859
-18.2131
-14.4196
-8.96815
-4.10933
0.175987
3.06505
5.10112
6.46126
7.35096
-0.333743
0.257495
-0.0559705
-0.198556
-0.993739
-2.29647
-4.29272
-6.86844
-9.85251
-12.9608
-15.9122
-18.222
-19.414
-18.6861
-16.7181
-12.9428
-7.72023
-2.97061
1.04665
3.67926
5.52016
6.7396
7.53638
-0.331387
0.260892
-0.0517345
-0.195169
-0.991879
-2.29415
-4.28256
-6.83426
-9.76866
-12.783
-15.5798
-17.6489
-18.5897
-17.5211
-15.276
-11.5539
-6.61447
-2.06615
1.66348
4.06853
5.74454
6.85082
7.56672
-0.328899
0.264213
-0.0475616
-0.191931
-0.989748
-2.29064
-4.26942
-6.79417
-9.67483
-12.5904
-15.2296
-17.0492
-17.7452
-16.3974
-13.9107
-10.2553
-5.64227
-1.34207
2.07698
4.27408
5.80625
6.8057
7.45594
-0.326426
0.267377
-0.0435216
-0.188752
-0.98722
-2.28576
-4.25307
-6.74792
-9.57084
-12.3834
-14.8638
-16.432
-16.8789
-15.3159
-12.641
-9.05516
-4.79173
-0.768077
2.33611
4.33856
5.73084
6.64664
7.25133
-0.32381
0.270453
-0.0395322
-0.185697
-0.984334
-2.27952
-4.23344
-6.69544
-9.45674
-12.1622
-14.4842
-15.8067
-15.9982
-14.2747
-11.471
-7.97273
-4.04493
-0.331963
2.47493
4.29762
5.57096
6.41849
6.98089
-0.321199
0.273397
-0.0356639
-0.182677
-0.980958
-2.27169
-4.21018
-6.63622
-9.33208
-11.9269
-14.091
-15.1833
-15.1148
-13.2686
-10.3843
-6.99655
-3.37663
0.0011227
2.5239
4.18163
5.35576
6.14355
6.66228
-0.318538
0.276203
-0.0318495
-0.179847
-0.97746
-2.26298
-4.18449
-6.57199
-9.199
-11.6801
-13.6891
-14.5805
-14.2539
-12.2922
-9.40925
-6.20161
-2.82859
0.232359
2.49117
4.00711
5.08813
5.82219
6.31492
-0.316188
0.279292
-0.0281121
-0.1772
-0.973885
-2.25259
-4.1534
-6.49588
-9.04646
-11.4075
-13.247
-13.9498
-13.401
-11.3355
-8.42137
-5.29931
-2.18301
0.518549
2.50325
3.87307
4.8594
5.54199
6.01416
-0.310227
0.284476
-0.0212678
-0.171766
-0.965188
-2.23163
-4.10245
-6.38644
-8.84508
-11.0783
-12.7639
-13.3217
-12.6418
-10.5761
-7.78022
-4.84666
-2.00164
0.452333
2.28043
3.57683
4.51549
5.17532
5.6407
-0.305779
0.288075
-0.0158836
-0.167689
-0.955307
-2.20337
-4.03344
-6.244
-8.59058
-10.6752
-12.2088
-12.6412
-11.8847
-9.88306
-7.25779
-4.53441
-1.96514
0.269411
1.97104
3.20308
4.10459
4.7516
5.21175
-0.303184
0.28911
-0.0132306
-0.166798
-0.946433
-2.17064
-3.94966
-6.07259
-8.2877
-10.1975
-11.5598
-11.867
-11.0543
-9.13098
-6.66555
-4.15144
-1.86191
0.125835
1.66872
2.80606
3.65762
4.27459
4.72002
-0.301081
0.288431
-0.0123414
-0.167787
-0.936665
-2.13076
-3.84699
-5.86633
-7.93272
-9.64841
-10.8159
-10.9995
-10.1487
-8.3027
-5.99374
-3.70038
-1.69109
0.037914
1.38932
2.41121
3.18696
3.75664
4.17983
-0.298338
0.286794
-0.0122101
-0.169354
-0.923747
-2.08016
-3.72009
-5.61786
-7.51963
-9.03013
-9.98472
-10.0466
-9.18602
-7.43785
-5.3142
-3.2527
-1.50449
-0.020576
1.14075
2.03476
2.71853
3.22908
3.61438
-0.295083
0.284188
-0.0126494
-0.170632
-0.906074
-2.01626
-3.56574
-5.3235
-7.04471
-8.34192
-9.07367
-9.01169
-8.17184
-6.56761
-4.66785
-2.84827
-1.33467
-0.0708052
0.916146
1.68012
2.2697
2.71194
3.0508
-0.290962
0.280747
-0.013293
-0.171082
-0.882515
-1.93724
-3.38217
-4.98218
-6.50656
-7.58403
-8.09472
-7.91375
-7.11388
-5.69817
-4.04422
-2.47389
-1.17945
-0.111699
0.718015
1.36299
1.86227
2.2397
2.53139
-0.286053
0.276528
-0.0138112
-0.169797
-0.851631
-1.8411
-3.1677
-4.59369
-5.90695
-6.76467
-7.07067
-6.78927
-6.04052
-4.82847
-3.42633
-2.09945
-1.00935
-0.115839
0.576541
1.11594
1.53281
1.84978
2.09652
-0.279991
0.271701
-0.013719
-0.166147
-0.812241
-1.72622
-2.92133
-4.15959
-5.25273
-5.90102
-6.03213
-5.67478
-4.98635
-3.96741
-2.80657
-1.70603
-0.797114
-0.056308
0.518131
0.965131
1.31189
1.5777
1.78223
-0.273247
0.26597
-0.0130615
-0.159563
-0.763448
-1.59178
-2.64383
-3.68531
-4.55736
-5.01573
-5.00868
-4.59992
-3.97267
-3.12752
-2.18183
-1.28463
-0.534331
0.0777797
0.551795
0.921203
1.20697
1.42858
1.60031
-0.265744
0.259215
-0.0117347
-0.149868
-0.704978
-1.43833
-2.33879
-3.18128
-3.84015
-4.13325
-4.02429
-3.5885
-3.01948
-2.32127
-1.56015
-0.838561
-0.226594
0.272032
0.662406
0.970152
1.21021
1.39622
1.53997
-0.257972
0.251027
-0.00990287
-0.136607
-0.636714
-1.26758
-2.01262
-2.6624
-3.12467
-3.27973
-3.10347
-2.66423
-2.15174
-1.57475
-0.965057
-0.391716
0.102815
0.506262
0.824825
1.077
1.27601
1.43397
1.55698
-0.249532
0.241622
-0.00711313
-0.119335
-0.558937
-1.08262
-1.67433
-2.14657
-2.43671
-2.48215
-2.2707
-1.85151
-1.39623
-0.919017
-0.431718
0.0210011
0.417006
0.741078
1.00073
1.20696
1.36853
1.49831
1.60157
-0.240638
0.230859
-0.00309544
-0.0972816
-0.47225
-0.887993
-1.33498
-1.65294
-1.80186
-1.76631
-1.5463
-1.16706
-0.772608
-0.379533
0.0101854
0.367211
0.682732
0.941545
1.14969
1.31661
1.44891
1.55603
1.64207
-0.230653
0.219474
0.00296496
-0.0700762
-0.3783
-0.689957
-1.00698
-1.19976
-1.24217
-1.15219
-0.942264
-0.615621
-0.285063
0.0341495
0.344176
0.625042
0.876333
1.08354
1.25053
1.38406
1.49168
1.58067
1.65215
-0.219881
0.20751
0.0113212
-0.037664
-0.279872
-0.496313
-0.702997
-0.801993
-0.772775
-0.651256
-0.461324
-0.191249
0.0757344
0.32803
0.570982
0.790056
0.988761
1.15213
1.28437
1.39006
1.4764
1.54896
1.60713
-0.207578
0.195884
0.0224538
-0.00111885
-0.181272
-0.315864
-0.434451
-0.469522
-0.399994
-0.265723
-0.0992922
0.118127
0.327023
0.520211
0.705725
0.872826
1.02604
1.15119
1.25336
1.33583
1.40426
1.4622
1.50827
-0.194255
0.184574
0.0358024
0.0376269
-0.0877643
-0.15716
-0.210149
-0.206335
-0.121703
0.0104235
0.152853
0.325411
0.485466
0.629753
0.767134
0.889919
1.00386
1.09712
1.1747
1.23809
1.291
1.33535
1.37003
-0.179246
0.174286
0.0507211
0.0754796
-0.00501851
-0.0272545
-0.0352176
-0.0112386
0.0707465
0.189429
0.307883
0.443534
0.564888
0.671182
0.769942
0.856539
0.937794
1.00519
1.06206
1.10808
1.1459
1.17682
1.20029
-0.163183
0.164657
0.0654548
0.108923
0.0620909
0.0696369
0.0892267
0.121177
0.190281
0.288498
0.383188
0.489136
0.581595
0.66015
0.729833
0.789455
0.846297
0.894636
0.935373
0.967558
0.993361
1.01381
1.0288
-0.145839
0.155803
0.0782977
0.134543
0.110313
0.132863
0.166169
0.19928
0.252031
0.327273
0.399159
0.480837
0.552144
0.611107
0.65958
0.700469
0.740703
0.774922
0.802803
0.824096
0.840698
0.853587
0.862825
-0.127877
0.146997
0.0872745
0.149847
0.138995
0.165337
0.20236
0.233267
0.270934
0.324435
0.375404
0.436335
0.491095
0.535347
0.568621
0.597613
0.626655
0.650074
0.668212
0.681538
0.691817
0.699961
0.705864
-0.109734
0.137969
0.0910788
0.154258
0.149901
0.173175
0.207166
0.234459
0.260372
0.295977
0.329082
0.372358
0.413284
0.445181
0.467611
0.489309
0.509758
0.524665
0.535667
0.54377
0.550571
0.556364
0.560663
-0.0918882
0.128054
0.0897967
0.148745
0.147148
0.164179
0.191483
0.214461
0.232342
0.254953
0.274419
0.303329
0.332461
0.353688
0.36888
0.385242
0.398621
0.407503
0.414004
0.419378
0.424504
0.429193
0.432962
-0.0754235
0.117678
0.084173
0.136235
0.135449
0.146272
0.165536
0.183959
0.196538
0.210644
0.220594
0.238366
0.257289
0.269247
0.279041
0.289865
0.297168
0.301586
0.304966
0.308196
0.3116
0.31509
0.318267
-0.0601214
0.106976
0.0759408
0.119549
0.119071
0.125069
0.136903
0.150667
0.15978
0.168831
0.173339
0.183415
0.194358
0.199705
0.205755
0.211699
0.214905
0.216923
0.218621
0.220366
0.222688
0.225652
0.228776
-0.046864
0.0962915
0.0659449
0.100295
0.0995828
0.102277
0.107817
0.11685
0.123007
0.128593
0.129846
0.134611
0.139321
0.140326
0.143145
0.145042
0.145693
0.146177
0.146138
0.146392
0.147706
0.150074
0.152753
-0.035444
0.0863288
0.0553603
0.0800374
0.0782382
0.0785506
0.0790924
0.0835183
0.0866603
0.0895913
0.0889978
0.0900729
0.0909745
0.0908544
0.0926673
0.0933547
0.093839
0.0938244
0.0931832
0.0932134
0.0944708
0.0967861
0.099379
-0.0310043
0.069661
0.0374955
0.0534037
0.049772
0.0479766
0.0443996
0.0445821
0.0443396
0.0427082
0.0374885
0.0315564
0.0214269
0.00782408
-0.00280156
-0.00876854
-0.0111117
-0.0129763
-0.0146806
-0.0152578
-0.0145335
-0.0128299
-0.0108368
-0.0169073
0.0616178
0.0323154
0.0393497
0.0355507
0.0347376
0.0311159
0.0310209
0.0328366
0.0373181
0.0423286
0.050018
0.0613
0.0737258
0.0807845
0.079308
0.0731634
0.0674334
0.063436
0.0609264
0.0596873
0.059565
0.0599338
2.2491
2.29956
2.54207
2.98604
3.54938
4.25133
5.12945
6.2322
7.6055
9.28371
11.2941
13.6427
16.3276
19.3157
22.5456
25.9138
29.2926
32.5423
35.5385
38.1876
40.4475
42.3028
43.8287
2.21657
2.30663
2.52665
2.94224
3.48402
4.16396
5.01797
6.09027
7.42588
9.06142
11.0237
13.3182
15.9343
18.8307
21.9355
25.1425
28.3253
31.3526
34.1109
36.5199
38.5477
40.1925
41.5297
2.1722
2.28888
2.48955
2.87195
3.3843
4.03195
4.84807
5.873
7.14971
8.71618
10.5998
12.8069
15.322
18.0982
21.0567
24.0895
27.0719
29.88
32.4109
34.5962
36.4128
37.8685
39.0364
2.11422
2.23917
2.42256
2.76724
3.2416
3.8461
4.60962
5.56887
6.7642
8.23375
10.006
12.0894
14.4673
17.0909
19.879
22.7233
25.5023
28.0986
30.4186
32.4037
34.0377
35.3352
36.3644
2.03863
2.15124
2.31726
2.62051
3.04771
3.59746
4.29302
5.16715
6.25756
7.60177
9.22979
11.153
13.3571
15.7948
18.3866
21.0274
23.6003
25.9945
28.1239
29.9372
31.4229
32.5993
33.5289
1.9336
2.01966
2.16502
2.42345
2.79401
3.27633
3.88737
4.65551
5.61556
6.80454
8.25392
9.97957
11.9724
14.1914
16.5639
18.9912
21.3624
23.5736
25.544
27.2264
28.6099
29.7123
30.5885
1.77545
1.83862
1.95799
2.16767
2.47294
2.87438
3.38311
4.02227
4.8239
5.82484
7.05954
8.54981
10.2948
12.2635
14.3942
16.5976
18.7716
20.8196
22.6657
24.2645
25.6032
26.6944
27.5803
1.53736
1.59959
1.68881
1.84594
2.07906
2.3866
2.7739
3.25885
3.87156
4.651
5.63771
6.86273
8.33625
10.0389
11.9194
13.8976
15.8798
17.7769
19.5184
21.0605
22.3879
23.5054
24.4429
2.14802
1.8491
2.55266
3.05535
3.67907
4.45319
5.34747
6.50847
7.91534
9.54242
11.4523
13.573
16.0326
18.8389
22.0253
25.4828
29.0571
32.554
35.803
38.6843
41.1334
43.1549
44.7661
2.16499
1.86959
2.56634
3.06855
3.6888
4.46214
5.35774
6.51908
7.9299
9.57259
11.5093
13.6872
16.2258
19.1401
22.4544
26.0638
29.8148
33.517
36.9986
40.1309
42.8382
45.1104
46.9506
2.18295
1.88998
2.58034
3.08441
3.70231
4.47509
5.37296
6.53404
7.9472
9.60209
11.5589
13.7833
16.3856
19.3874
22.805
26.5364
30.4295
34.2979
37.9707
41.3135
44.2428
46.7336
48.7814
2.2016
1.90924
2.59133
3.09952
3.71631
4.48872
5.39019
6.55137
7.96659
9.63144
11.6031
13.8637
16.515
19.5844
23.0808
26.9047
30.9052
34.8998
38.7195
42.2266
45.3331
48.001
50.223
2.22117
1.92815
2.59751
3.11118
3.72734
4.49911
5.40476
6.56645
7.984
9.65786
11.6412
13.9298
16.6175
19.7359
23.2879
27.1758
31.25
35.3308
39.2519
42.874
46.1076
48.9043
51.2578
2.24109
1.94807
2.59819
3.1174
3.73316
4.50406
5.41456
6.5774
7.99803
9.68069
11.6737
13.9834
16.6956
19.8448
23.4294
27.3536
31.4686
35.5975
39.5758
43.2641
46.5733
49.4478
51.8854
2.26082
1.97119
2.59478
3.11831
3.73282
4.50199
5.41711
6.58115
8.00519
9.69692
11.6995
14.0262
16.7548
19.9204
23.5177
27.4525
31.5776
35.7183
39.7119
43.4192
46.7534
49.6543
52.1267
2.27942
1.99861
2.58867
3.11514
3.72704
4.49253
5.41079
6.57489
8.00157
9.70184
11.7141
14.0556
16.7957
19.9676
23.5622
27.4866
31.5957
35.7166
39.6885
43.3729