/*--------------------------------*- C++ -*----------------------------------*\
  =========                 |
  \\      /  F ield         | OpenFOAM: The Open Source CFD Toolbox
   \\    /   O peration     | Website:  https://openfoam.org
    \\  /    A nd           | Version:  7
     \\/     M anipulation  |
\*---------------------------------------------------------------------------*/
FoamFile
{
    version     2.0;
    format      ascii;
    class       surfaceScalarField;
    location    "84";
    object      phi;
}
// * * * * * * * * * * * * * * * * * * * * * * * * * * * * * * * * * * * * * //

dimensions      [0 3 -1 0 0 0 0];

internalField   nonuniform List<scalar> 
25449
(
65.9056
57.4721
-34.0729
48.915
42.8898
-25.8991
36.4682
32.1486
-19.7018
27.2853
24.1815
-14.9986
20.4717
18.2447
-11.4311
15.3929
13.8048
-8.726
11.5935
10.4736
-6.67424
8.74328
7.96684
-5.1166
6.60069
6.07494
-3.93234
4.9879
4.64295
-3.03016
3.77314
3.55594
-2.34119
2.85823
2.7285
-1.81359
2.16958
2.09699
-1.40835
1.65183
1.61383
-1.09608
1.26312
1.24335
-0.854639
0.971749
0.958627
-0.667263
0.753696
0.739318
-0.521266
0.59075
0.570031
-0.407086
0.469134
0.43915
-0.317534
0.378437
0.337885
-0.247187
0.310818
0.25956
-0.191941
0.260383
0.199027
-0.14859
0.152398
-0.114777
0.222762
50.2863
74.9886
37.4709
55.7053
28.0265
41.593
21.0257
31.1824
15.8113
23.4591
11.9127
17.7034
8.98891
13.3974
6.79116
10.1646
5.13643
7.72967
3.88944
5.88995
2.9496
4.49578
2.24173
3.43638
1.70927
2.62945
1.30947
2.01364
1.00985
1.54296
0.785764
1.18272
0.618479
0.906603
0.493812
0.694698
0.401041
0.531922
0.332073
0.406852
0.280825
0.310809
0.242726
0.237125
0.180721
0.214402
37.4488
87.6494
28.0745
65.0797
21.1012
48.5663
15.8939
36.3897
11.9928
27.3602
9.06242
20.6337
6.85655
15.6032
5.19337
11.8278
3.93808
8.98495
2.99039
6.83763
2.27538
5.2108
1.73671
3.97504
1.33179
3.03436
1.0282
2.31723
0.801154
1.77
0.631745
1.35212
0.505595
1.03275
0.411821
0.78847
0.342219
0.601523
0.290608
0.458463
0.252353
0.349063
0.223982
0.265496
0.201766
0.202937
27.5203
96.4999
20.8321
71.768
15.7779
53.6206
11.9579
40.2097
9.06908
30.249
6.88308
22.8197
5.22783
17.2585
3.97386
13.0817
3.02382
9.935
2.30451
7.55694
1.76078
5.75454
1.35084
4.38498
1.04282
3.34238
0.812203
2.54784
0.64009
1.94212
0.511957
1.48026
0.416747
1.12796
0.346111
0.859106
0.293775
0.65386
0.255029
0.497208
0.226351
0.377741
0.205111
0.286735
0.217507
0.18937
20.1076
102.441
15.4536
76.4221
11.8411
57.2331
9.05669
42.9942
6.91966
32.386
5.28399
24.4554
4.0344
18.5081
3.081
14.0351
2.35457
10.6614
1.80212
8.10939
1.38322
6.17343
1.06689
4.70132
0.829158
3.58011
0.651362
2.72564
0.518901
2.07458
0.420461
1.57869
0.347414
1.20101
0.293266
0.913252
0.253162
0.693962
0.223478
0.526892
0.201504
0.399713
0.185229
0.30301
0.229579
0.173156
14.6988
106.195
11.5577
79.5633
9.00597
59.7848
6.97704
45.0231
5.38431
33.9787
4.14477
25.695
3.18571
19.4671
2.44668
14.7742
1.87908
11.229
1.4447
8.54378
1.1138
6.50434
0.863179
4.95195
0.674628
3.76867
0.533657
2.86661
0.428746
2.17949
0.350849
1.65659
0.293045
1.25881
0.250154
0.956143
0.218335
0.725782
0.194732
0.550493
0.177221
0.417225
0.164221
0.316008
0.239249
0.154552
10.8211
108.318
8.79133
81.5932
7.00847
61.5677
5.5209
46.5107
4.31423
35.1854
3.35344
26.6557
2.59749
20.2231
2.00747
15.3642
1.54968
11.6868
1.19648
8.89697
0.92572
6.7751
0.719728
5.15794
0.56436
3.92403
0.448094
2.98288
0.361565
2.26602
0.297292
1.72086
0.24952
1.30658
0.213962
0.991699
0.187471
0.75227
0.167727
0.570235
0.153005
0.431946
0.142025
0.326989
0.247458
0.133815
8.07955
109.231
6.86005
82.8128
5.6284
62.7994
4.52323
47.6158
3.58559
36.123
2.81696
27.4244
2.19963
20.8404
1.71045
15.8534
1.32633
12.071
1.02716
9.19614
0.796084
7.00619
0.619302
5.33473
0.485494
4.05786
0.385178
3.0832
0.310442
2.34076
0.254826
1.77648
0.213333
1.34807
0.182268
1.02277
0.158964
0.775575
0.14146
0.587738
0.128322
0.445084
0.118445
0.336866
0.254889
0.111015
5.62121
111.104
4.23679
84.1973
3.2019
63.8343
2.42975
48.388
1.84966
36.7031
1.41269
27.8613
1.08182
21.1713
0.830278
16.1049
0.638342
12.2629
0.491836
9.34264
0.380311
7.11771
0.296033
5.419
0.233032
4.12086
0.186461
3.12977
0.152293
2.37493
0.127222
1.80155
0.1087
1.36659
0.094886
1.03658
0.084507
0.785951
0.0766714
0.595572
0.0707451
0.451009
0.0662801
0.341332
0.258275
0.0628928
3.70511
112.348
2.79311
85.1093
2.11277
64.5146
1.60744
48.8933
1.22823
37.0823
0.942937
28.1466
0.726574
21.3877
0.561586
16.2699
0.43505
12.3895
0.33795
9.43975
0.263673
7.192
0.207425
5.47526
0.16546
4.16284
0.134645
3.1606
0.112251
2.39733
0.0959383
1.81787
0.0838891
1.37865
0.0748169
1.04565
0.0678826
0.792887
0.0625319
0.600923
0.0583902
0.455152
0.0552015
0.34452
0.260743
0.0527335
2.29569
113.125
1.73157
85.6735
1.31203
64.9341
1.00254
49.2028
0.770629
37.3142
0.596474
28.3208
0.463943
21.5202
0.362268
16.3716
0.283542
12.4682
0.222518
9.50076
0.175393
7.23912
0.139525
5.51112
0.112804
4.18955
0.093366
3.18003
0.0794401
2.41125
0.0693974
1.82791
0.0619471
1.38609
0.0562069
1.05139
0.0516572
0.797434
0.0479969
0.604582
0.0450423
0.458105
0.0426872
0.346875
0.262627
0.0408019
1.27263
113.563
0.961287
85.9849
0.730923
65.1645
0.563049
49.3706
0.437597
37.4397
0.34365
28.4147
0.271575
21.5923
0.215514
16.4276
0.171197
12.5125
0.136082
9.53589
0.108394
7.26682
0.0870447
5.53249
0.0711174
4.2055
0.0596891
3.19147
0.0516949
2.41926
0.0460196
1.8336
0.0417434
1.39038
0.038266
1.05487
0.0352961
0.800406
0.0327183
0.60716
0.0304938
0.46033
0.0286247
0.348743
0.264193
0.0270591
0.542129
113.757
0.411332
86.1157
0.315677
65.2602
0.248244
49.4381
0.198241
37.4897
0.161025
28.4519
0.131677
21.6216
0.107805
16.4515
0.0877397
12.5326
0.0708248
9.55279
0.0567262
7.28091
0.0454542
5.54375
0.0369541
4.21399
0.0309962
3.19742
0.0270335
2.42322
0.0243163
1.83631
0.0221729
1.39252
0.0201886
1.05685
0.0182252
0.802367
0.0163004
0.609084
0.0144838
0.462146
0.0128579
0.350368
0.265622
0.0114274
0.0319032
113.779
0.0272271
86.1205
0.0252051
65.2622
0.0272313
49.436
0.0293421
37.4876
0.0311875
28.4501
0.0312272
21.6216
0.0294393
16.4533
0.0259691
12.536
0.0214365
9.55733
0.0165056
7.28585
0.0119451
5.54832
0.00831745
4.21763
0.00590465
3.19984
0.00454033
2.42459
0.00372799
1.83714
0.00294647
1.39331
0.00188848
1.05791
0.000505633
0.803751
-0.00108415
0.610674
-0.00273791
0.463799
-0.00429691
0.351927
0.267044
-0.00571892
-0.314648
113.684
-0.23368
86.0395
-0.172647
65.2012
-0.124195
49.3876
-0.0873185
37.4507
-0.0595362
28.4223
-0.0400047
21.602
-0.0271949
16.4405
-0.0197368
12.5286
-0.0161929
9.55378
-0.0152318
7.28488
-0.0155829
5.54866
-0.0162471
4.21829
-0.0165625
3.20015
-0.0164088
2.42443
-0.0161047
1.83683
-0.0160904
1.39329
-0.0166265
1.05845
-0.0177225
0.804846
-0.0191952
0.612146
-0.0208496
0.465452
-0.0224725
0.353549
0.268562
-0.0239919
-0.540018
113.512
-0.403501
85.903
-0.302097
65.0998
-0.224235
49.3097
-0.16544
37.3919
-0.121422
28.3783
-0.089722
21.5703
-0.0678588
16.4186
-0.0536777
12.5144
-0.0452563
9.54536
-0.0408396
7.28048
-0.0388422
5.54668
-0.0379578
4.21741
-0.0372374
3.19944
-0.0363386
2.42354
-0.035459
1.83596
-0.0350139
1.39285
-0.0352726
1.05871
-0.036248
0.805823
-0.037728
0.613626
-0.0394731
0.467198
-0.041247
0.355321
0.270228
-0.0429135
-0.677488
113.291
-0.50725
85.7328
-0.381899
64.9744
-0.286922
49.2148
-0.215501
37.3205
-0.162249
28.325
-0.123664
21.5318
-0.0967431
16.3917
-0.0788709
12.4965
-0.0678803
9.53436
-0.0617728
7.27436
-0.0587851
5.54368
-0.0573954
4.21601
-0.056428
3.19847
-0.0553541
2.42246
-0.0542831
1.83489
-0.0536459
1.39221
-0.0537692
1.05883
-0.0547075
0.80676
-0.0562545
0.615173
-0.058138
0.469079
-0.0601081
0.357291
0.27207
-0.0619507
-0.750055
113.042
-0.562211
85.545
-0.425005
64.8372
-0.321954
49.1117
-0.244745
37.2433
-0.187397
28.2677
-0.145805
21.4902
-0.116752
16.3627
-0.0974092
12.4772
-0.0855382
9.52249
-0.079034
7.26786
-0.0760571
5.54071
-0.0749374
4.2149
-0.0743119
3.19785
-0.0734789
2.42164
-0.0724744
1.83389
-0.0717713
1.39152
-0.0717966
1.05886
-0.0726848
0.80765
-0.0742729
0.616761
-0.0762755
0.471083
-0.0784297
0.359445
0.274082
-0.0804426
-0.777165
112.782
-0.583006
85.3508
-0.442383
64.6966
-0.337559
49.0069
-0.259328
37.165
-0.20145
28.2098
-0.159544
21.4483
-0.130393
16.3335
-0.111124
12.4579
-0.0995511
9.51091
-0.09356
7.26186
-0.0913072
5.53844
-0.0910206
4.21461
-0.0911691
3.19799
-0.0908728
2.42134
-0.0900896
1.8331
-0.0893489
1.39077
-0.0892137
1.05872
-0.089941
0.808376
-0.0914514
0.618271
-0.0934783
0.473109
-0.0957289
0.361695
0.276212
-0.0978584
-0.772481
112.52
-0.579916
85.1582
-0.441768
64.5584
-0.339568
48.9047
-0.263634
37.0891
-0.207704
28.1539
-0.167354
21.4079
-0.139508
16.3057
-0.121384
12.4398
-0.110929
9.50045
-0.106091
7.25703
-0.105078
5.53744
-0.106048
4.21558
-0.107307
3.19925
-0.107774
2.42181
-0.107304
1.83264
-0.106482
1.38996
-0.106039
1.05828
-0.106398
0.808737
-0.107604
0.619477
-0.109434
0.47494
-0.11158
0.363841
0.278326
-0.113695
-0.749344
112.263
-0.563004
84.9719
-0.430752
64.4262
-0.333714
48.8076
-0.261983
37.0174
-0.209413
28.1013
-0.171687
21.3702
-0.145956
16.2799
-0.129597
12.4235
-0.120739
9.49158
-0.117437
7.25371
-0.117982
5.53797
-0.120485
4.21807
-0.123084
3.20184
-0.124458
2.42318
-0.124316
1.83249
-0.123287
1.38892
-0.122282
1.05727
-0.121926
0.808379
-0.122434
0.619984
-0.123678
0.476182
-0.12537
0.365532
0.280169
-0.127213
-0.710556
112.015
-0.53436
84.7957
-0.410915
64.3027
-0.321225
48.7179
-0.255337
36.9515
-0.207331
28.0533
-0.173119
21.336
-0.150153
16.257
-0.136047
12.4094
-0.129159
9.4847
-0.127698
7.25225
-0.130075
5.54035
-0.134377
4.22238
-0.138567
3.20604
-0.141035
2.42565
-0.141273
1.83273
-0.139903
1.38756
-0.138021
1.05539
-0.13651
0.806869
-0.135813
0.619288
-0.135922
0.47629
-0.13661
0.366219
0.281231
-0.137672
-0.660856
111.782
-0.497547
84.6324
-0.384898
64.1901
-0.304004
48.637
-0.245054
36.8925
-0.202455
28.0107
-0.172442
21.3059
-0.152789
16.2373
-0.14137
12.3979
-0.136785
9.4801
-0.137424
7.25288
-0.141854
5.54477
-0.148169
4.22868
-0.15416
3.21202
-0.157882
2.42936
-0.158535
1.83338
-0.156679
1.38569
-0.153604
1.05231
-0.150463
0.803727
-0.147895
0.616718
-0.146034
0.474429
-0.144843
0.365029
0.280633
-0.144246
-0.719867
111.567
-0.561277
84.4738
-0.444997
64.0738
-0.358449
48.5505
-0.293699
36.8278
-0.245544
27.9625
-0.210193
21.2706
-0.18515
16.2123
-0.168577
12.3814
-0.159263
9.47079
-0.156141
7.24976
-0.158195
5.54683
-0.163872
4.23436
-0.170898
3.21905
-0.176668
2.43514
-0.179314
1.83603
-0.178518
1.3849
-0.175216
1.04901
-0.170649
0.799158
-0.165784
0.611855
-0.161234
0.469879
-0.157381
0.361175
0.277551
-0.154299
-0.699741
111.365
-0.549447
84.3235
-0.439088
63.9634
-0.356829
48.4682
-0.295192
36.7661
-0.249295
27.9166
-0.215579
21.2369
-0.191717
16.1884
-0.176013
12.3657
-0.167369
9.46213
-0.164836
7.24721
-0.167523
5.5495
-0.173975
4.2408
-0.181896
3.22695
-0.18844
2.44167
-0.191328
1.83891
-0.189847
1.38341
-0.184734
1.04389
-0.177417
0.79184
-0.169389
0.603825
-0.161682
0.462172
-0.154755
0.354248
0.271454
-0.148659
-0.68003
111.173
-0.537554
84.1811
-0.432758
63.8587
-0.354521
48.39
-0.295802
36.7074
-0.252017
27.8728
-0.21983
21.2047
-0.197068
16.1656
-0.182173
12.3508
-0.174146
9.4541
-0.172159
7.24523
-0.175444
5.55278
-0.182666
4.24802
-0.191545
3.23584
-0.199041
2.44917
-0.202447
1.84232
-0.200546
1.38151
-0.193906
1.03725
-0.184329
0.782261
-0.173702
0.5932
-0.163161
0.45163
-0.153287
0.344372
0.262519
-0.144352
-0.660777
110.992
-0.525699
84.046
-0.426157
63.7591
-0.351718
48.3156
-0.295747
36.6514
-0.253947
27.831
-0.223193
21.1739
-0.201454
16.1439
-0.187304
12.3366
-0.179839
9.44663
-0.178347
7.24372
-0.182191
5.55661
-0.190183
4.256
-0.200109
3.24575
-0.208784
2.45783
-0.213059
1.84658
-0.211199
1.37965
-0.203594
1.02964
-0.192082
0.770747
-0.178678
0.579794
-0.16512
0.438071
-0.152678
0.331929
0.251549
-0.141709
-0.642008
110.821
-0.513952
83.9179
-0.419391
63.6645
-0.348548
48.2447
-0.295177
36.5981
-0.255251
27.7911
-0.225842
21.1445
-0.205057
16.1231
-0.191594
12.3232
-0.184637
9.43967
-0.18359
7.24267
-0.18795
5.56097
-0.196711
4.26476
-0.207775
3.25681
-0.217873
2.46793
-0.22348
1.85219
-0.222303
1.37847
-0.214146
1.02148
-0.200681
0.757279
-0.184872
0.563987
-0.169607
0.422805
-0.156207
0.318528
0.240009
-0.144669
-0.623738
110.659
-0.502361
83.7965
-0.412536
63.5747
-0.345109
48.1773
-0.294203
36.5471
-0.25605
27.753
-0.22791
21.1164
-0.208017
16.1032
-0.195188
12.3103
-0.188687
9.43316
-0.188035
7.24201
-0.192869
5.56579
-0.202388
4.27427
-0.214673
3.26908
-0.226475
2.47972
-0.234001
1.85971
-0.234172
1.37864
-0.225977
1.01328
-0.211764
0.743063
-0.195987
0.548208
-0.181373
0.408191
-0.168389
0.305542
0.228547
-0.15693
-0.605973
110.506
-0.490962
83.6815
-0.405647
63.4894
-0.341471
48.1131
-0.29291
36.4986
-0.256439
27.7165
-0.229496
21.0894
-0.21044
16.0841
-0.198193
12.2981
-0.192102
9.42706
-0.191796
7.2417
-0.197054
5.57105
-0.207311
4.28452
-0.220895
3.28267
-0.234737
2.49356
-0.244812
1.86978
-0.247067
1.38089
-0.240183
1.00639
-0.227613
0.73049
-0.213524
0.534121
-0.199396
0.394062
-0.185763
0.291907
0.215618
-0.172836
-0.588713
110.361
-0.47978
83.5726
-0.398768
63.4084
-0.337691
48.052
-0.291362
36.4523
-0.256491
27.6816
-0.230681
21.0636
-0.212409
16.0659
-0.2007
12.2864
-0.194973
9.42132
-0.194962
7.24168
-0.20059
5.57667
-0.211553
4.29547
-0.22652
3.29762
-0.242732
2.50976
-0.255882
1.88292
-0.261147
1.38615
-0.257451
1.00269
-0.247709
0.720745
-0.233629
0.520038
-0.216591
0.377024
-0.198832
0.274146
0.19819
-0.181406
-0.571955
110.225
-0.46883
83.4695
-0.391929
63.3315
-0.333811
47.9939
-0.289612
36.4081
-0.256264
27.6483
-0.231527
21.0389
-0.213992
16.0483
-0.202777
12.2752
-0.197372
9.41592
-0.197605
7.2419
-0.203544
5.5826
-0.215169
4.30709
-0.231582
3.31403
-0.250358
2.52853
-0.266952
1.89951
-0.27647
1.39567
-0.277795
1.00401
-0.270765
0.71371
-0.254287
0.503562
-0.230925
0.353661
-0.205396
0.248616
0.174139
-0.181349
-0.555694
110.097
-0.458126
83.3719
-0.385157
63.2585
-0.329867
47.9386
-0.287701
36.3659
-0.255805
27.6164
-0.232088
21.0152
-0.215246
16.0315
-0.204484
12.2644
-0.199359
9.41078
-0.199785
7.24232
-0.205969
5.58877
-0.218201
4.31931
-0.236043
3.33186
-0.257382
2.54986
-0.277906
1.92003
-0.29356
1.41132
-0.301811
1.01226
-0.297776
0.709673
-0.279192
0.484977
-0.250776
0.325244
-0.219807
0.217644
0.146715
-0.192387
-0.539922
109.977
-0.447678
83.2797
-0.378472
63.1893
-0.325888
47.886
-0.285667
36.3257
-0.255157
27.5859
-0.232407
20.9924
-0.216218
16.0153
-0.205872
12.2541
-0.200987
9.40589
-0.201554
7.24288
-0.207913
5.59513
-0.220666
4.33205
-0.239809
3.351
-0.263644
2.57369
-0.289085
1.94547
-0.313199
1.43543
-0.329614
1.02867
-0.329048
0.709102
-0.311551
0.467481
-0.285853
0.299544
-0.260376
0.192166
0.125586
-0.239252
-0.52463
109.863
-0.437491
83.1925
-0.371892
63.1237
-0.3219
47.836
-0.283539
36.2873
-0.254355
27.5567
-0.232526
20.9706
-0.216951
15.9997
-0.206986
12.2441
-0.202302
9.4012
-0.202957
7.24353
-0.209414
5.60157
-0.222565
4.34519
-0.242787
3.37121
-0.26918
2.60007
-0.300916
1.9772
-0.334854
1.46936
-0.357982
1.05179
-0.358699
0.709815
-0.342382
0.451163
-0.321412
0.278573
-0.303073
0.173824
0.110754
-0.288246
-0.50981
109.757
-0.42757
83.1103
-0.365429
63.0616
-0.317922
47.7885
-0.281345
36.2507
-0.253429
27.5288
-0.232477
20.9496
-0.217481
15.9847
-0.207864
12.2345
-0.203344
9.39667
-0.204034
7.24421
-0.210503
5.60803
-0.223884
4.35857
-0.244927
3.39224
-0.274113
2.62925
-0.31318
2.01626
-0.355895
1.51207
-0.381099
1.07698
-0.378406
0.707117
-0.359629
0.432387
-0.338378
0.257321
-0.320325
0.155768
0.0961822
-0.305758
-0.495454
109.657
-0.417918
83.0327
-0.359097
63.0027
-0.313975
47.7434
-0.279109
36.2159
-0.252408
27.5021
-0.232293
20.9295
-0.217843
15.9703
-0.208542
12.2252
-0.20415
9.39227
-0.204823
7.24487
-0.21121
5.61441
-0.224614
4.37196
-0.246233
3.41385
-0.278458
2.66147
-0.324805
2.0626
-0.372939
1.5602
-0.394908
1.09895
-0.385968
0.698173
-0.363998
0.410417
-0.341119
0.23444
-0.321511
0.136157
0.0806412
-0.305976
-0.481551
109.564
-0.408538
82.9597
-0.352906
62.9471
-0.310075
47.7006
-0.276854
36.1826
-0.251317
27.4765
-0.232001
20.9102
-0.218066
15.9563
-0.209054
12.2162
-0.204755
9.38797
-0.205357
7.24547
-0.211558
5.6206
-0.224758
4.38515
-0.246729
3.43581
-0.282002
2.69673
-0.334265
2.11486
-0.383536
1.60947
-0.398748
1.11415
-0.383912
0.683331
-0.360829
0.387333
-0.337597
0.211206
-0.316971
0.115529
0.0639991
-0.300335
-0.468095
109.476
-0.399432
82.891
-0.346866
62.8945
-0.306239
47.6599
-0.274598
36.151
-0.25018
27.4521
-0.231627
20.8917
-0.21818
15.9429
-0.209429
12.2074
-0.205191
9.38372
-0.20567
7.24594
-0.211571
5.62649
-0.224335
4.3979
-0.246429
3.4579
-0.284326
2.73462
-0.340112
2.17064
-0.386538
1.65589
-0.393352
1.12096
-0.373695
0.663668
-0.350917
0.364556
-0.32818
0.188467
-0.307191
0.0945368
0.046622
-0.289821
-0.455074
109.395
-0.3906
82.8266
-0.340986
62.8449
-0.30248
47.6214
-0.27236
36.1209
-0.249017
27.4287
-0.231196
20.8738
-0.218208
15.9299
-0.209693
12.1989
-0.205486
9.37951
-0.205791
7.24623
-0.211275
5.63197
-0.223374
4.40999
-0.245313
3.47983
-0.284897
2.7742
-0.341228
2.22697
-0.381628
1.69629
-0.379365
1.11869
-0.354893
0.63919
-0.332111
0.341771
-0.309976
0.166329
-0.290476
0.0750339
0.0309924
-0.274854
-0.442481
109.32
-0.382043
82.7661
-0.335273
62.7981
-0.298811
47.585
-0.270156
36.0922
-0.247848
27.4064
-0.230729
20.8567
-0.218176
15.9173
-0.209875
12.1906
-0.205668
9.3753
-0.205748
7.24631
-0.210701
5.63691
-0.221916
4.4212
-0.243326
3.50123
-0.283197
2.81406
-0.336934
2.2807
-0.369071
1.72842
-0.357553
1.10717
-0.327602
0.609231
-0.304884
0.319054
-0.283728
0.14517
-0.266116
0.0574194
0.018391
-0.253523
-0.430307
109.25
-0.373762
82.7096
-0.329734
62.7541
-0.295244
47.5505
-0.268004
36.065
-0.246693
27.3851
-0.230247
20.8403
-0.218107
15.9052
-0.209996
12.1825
-0.205764
9.37106
-0.20557
7.2461
-0.209882
5.64122
-0.220003
4.43131
-0.240394
3.52161
-0.278826
2.85248
-0.327027
2.32889
-0.349643
1.75104
-0.329359
1.08688
-0.292908
0.572775
-0.269347
0.295488
-0.247207
0.123026
-0.229134
0.0393432
0.00719436
-0.217945
-0.418543
109.185
-0.365756
82.6568
-0.324377
62.7127
-0.291792
47.5179
-0.265917
36.0391
-0.245569
27.3648
-0.229771
20.8245
-0.218021
15.8934
-0.210083
12.1746
-0.2058
9.36677
-0.205287
7.24558
-0.208859
5.64478
-0.217683
4.44013
-0.236455
3.54037
-0.271579
2.8876
-0.311774
2.36909
-0.324579
1.76384
-0.297
1.05929
-0.253756
0.529523
-0.229169
0.270902
-0.205642
0.0994941
-0.184484
0.0181832
-0.00709999
-0.170199
-0.40718
109.125
-0.358026
82.6077
-0.319207
62.6739
-0.288464
47.4872
-0.263911
36.0145
-0.244492
27.3454
-0.229317
20.8093
-0.21794
15.882
-0.210156
12.1668
-0.2058
9.3624
-0.204926
7.2447
-0.20767
5.64752
-0.215003
4.44745
-0.231485
3.55684
-0.261463
2.91757
-0.29179
2.39941
-0.295409
1.76745
-0.263563
1.02744
-0.215616
0.481572
-0.189834
0.245113
-0.169079
0.0787338
-0.157313
0.00641394
-0.0267438
-0.137678
-0.39621
109.071
-0.350572
82.562
-0.314231
62.6376
-0.285271
47.4582
-0.261998
35.9913
-0.243479
27.3268
-0.228907
20.7947
-0.217883
15.871
-0.210237
12.1591
-0.20579
9.35795
-0.204519
7.24342
-0.206361
5.64935
-0.212019
4.4531
-0.225521
3.57034
-0.248693
2.94074
-0.267834
2.41855
-0.2633
1.76292
-0.230837
0.994973
-0.180552
0.431278
-0.149129
0.213691
-0.128096
0.0576943
-0.129459
0.00777328
-0.0403438
-0.11587
-0.385626
109.021
-0.343393
82.5198
-0.309454
62.6036
-0.282224
47.431
-0.260191
35.9692
-0.242546
27.3092
-0.228555
20.7807
-0.21787
15.8603
-0.210348
12.1516
-0.205792
9.35339
-0.204094
7.24171
-0.204977
5.65023
-0.208792
4.4569
-0.218659
3.5802
-0.233629
2.9557
-0.240629
2.42554
-0.228738
1.75102
-0.198562
0.964788
-0.150208
0.382921
-0.115832
0.179306
-0.0995712
0.0414264
-0.0967952
0.00499051
-0.0570798
-0.0800691
-0.375419
108.976
-0.33649
82.4808
-0.304882
62.572
-0.279331
47.4054
-0.258505
35.9484
-0.241707
27.2924
-0.22828
20.7673
-0.21792
15.85
-0.21051
12.1442
-0.205829
9.3487
-0.20368
7.23956
-0.203562
5.6501
-0.205396
4.45873
-0.211058
3.58586
-0.216791
2.96143
-0.211008
2.41976
-0.19218
1.73219
-0.165703
0.938309
-0.121121
0.338331
-0.0764733
0.134661
-0.0757224
0.0406657
-0.0670653
-0.00367346
-0.0836363
-0.040518
-0.365582
108.935
-0.329862
82.4451
-0.300518
62.5427
-0.276599
47.3815
-0.256946
35.9288
-0.240974
27.2764
-0.228094
20.7544
-0.218048
15.8399
-0.21074
12.1369
-0.205927
9.34388
-0.203312
7.23694
-0.202169
5.64895
-0.201919
4.45847
-0.202921
3.58685
-0.198725
2.95722
-0.179885
2.40091
-0.155023
1.70733
-0.134967
0.918244
-0.103356
0.306715
-0.050069
0.0813495
-0.0623097
0.0528963
-0.0514016
-0.0145983
-0.114633
-0.0204158
-0.343958
108.883
-0.303909
82.4051
-0.273842
62.5126
-0.250881
47.3585
-0.232866
35.9107
-0.218659
27.2622
-0.207398
20.7432
-0.198668
15.8312
-0.192294
12.1305
-0.187988
9.33958
-0.185364
7.23431
-0.183568
5.64715
-0.181585
4.45649
-0.178187
3.58345
-0.165489
2.94453
-0.136653
2.37208
-0.107599
1.67827
-0.0947463
0.90539
-0.0850654
0.297023
-0.0384534
0.034745
-0.053807
0.0681881
0.00368813
-0.0721228
-0.131295
0.0203455
-0.27353
108.842
-0.241952
82.3735
-0.21824
62.4889
-0.200142
47.3404
-0.185922
35.8965
-0.174683
27.251
-0.16573
20.7342
-0.158727
15.8242
-0.153521
12.1253
-0.149864
9.33591
-0.147365
7.2318
-0.145226
5.645
-0.142306
4.45355
-0.136527
3.57766
-0.120735
2.92872
-0.0901817
2.34152
-0.0598718
1.64795
-0.0464074
0.891915
-0.0483148
0.298922
-0.0274041
0.0137832
-0.00296337
0.0437333
0.0445735
-0.119679
-0.13378
0.0470443
-0.217499
108.809
-0.192586
82.3486
-0.173876
62.4702
-0.159603
47.3262
-0.148378
35.8853
-0.139488
27.2421
-0.132375
20.7271
-0.126766
15.8186
-0.122531
12.1211
-0.119463
9.33284
-0.117199
7.22953
-0.115037
5.64284
-0.111864
4.45038
-0.105367
3.57116
-0.0894675
2.91283
-0.0607491
2.3128
-0.0314643
1.61867
-0.0163217
0.876773
-0.0177416
0.30034
-0.0129142
0.00896921
0.0330252
-0.00226733
0.0491713
-0.135832
-0.136833
0.052216
-0.172904
108.784
-0.153218
82.3289
-0.138434
62.4554
-0.127162
47.3149
-0.118291
35.8764
-0.111253
27.2351
-0.1056
20.7214
-0.10111
15.8141
-0.0976742
12.1176
-0.0951203
9.33028
-0.0931291
7.22753
-0.0911013
5.6408
-0.0880321
4.4473
-0.0816836
3.5648
-0.0670979
2.89823
-0.0418124
2.28751
-0.0152404
1.59209
-0.000378583
0.8619
-0.00105407
0.301005
-0.000788609
0.00867437
0.0376109
-0.0406419
0.0457843
-0.144021
-0.140455
0.0494012
-0.137424
108.763
-0.121849
82.3133
-0.110152
62.4437
-0.101239
47.306
-0.0942206
35.8694
-0.0886453
27.2295
-0.0841519
20.7169
-0.0805597
15.8105
-0.0777768
12.1149
-0.075663
9.32816
-0.0739447
7.22581
-0.0721198
5.63898
-0.0693211
4.4445
-0.0635334
3.55902
-0.0508089
2.88551
-0.029366
2.26607
-0.00625404
1.56898
0.0074712
0.848176
0.00778029
0.300699
0.00742122
0.00905044
0.0346099
-0.0678675
0.0403116
-0.149716
-0.143383
0.0432347
-0.109158
108.747
-0.0967861
82.3009
-0.0874938
62.4344
-0.0804184
47.2989
-0.0748454
35.8638
-0.0704147
27.225
-0.0668339
20.7134
-0.0639552
15.8076
-0.0617006
12.1126
-0.0599552
9.32641
-0.0584891
7.22434
-0.0568881
5.63737
-0.0544254
4.44203
-0.0493726
3.55395
-0.0386493
2.87478
-0.0209631
2.24837
-0.00148672
1.5495
0.0107798
0.835898
0.0120365
0.29943
0.0121896
0.00887592
0.0303497
-0.0859981
0.0340377
-0.153415
-0.14514
0.0357949
-0.0869074
108.734
-0.077233
82.2913
-0.0699688
62.4271
-0.0644419
47.2934
-0.0600847
35.8595
-0.0566139
27.2216
-0.0537968
20.7105
-0.0515161
15.8053
-0.0497094
12.1108
-0.0482853
9.32499
-0.047053
7.22311
-0.0456697
5.63599
-0.0435253
4.43988
-0.0391539
3.54958
-0.0301117
2.86574
-0.015441
2.2337
0.000936292
1.53312
0.0117384
0.825099
0.0136516
0.297523
0.0148487
0.00769481
0.0263981
-0.0975744
0.0284243
-0.155433
-0.145862
0.0291411
-0.0688289
108.724
-0.0609904
82.2834
-0.0551027
62.4213
-0.0506261
47.2889
-0.0471007
35.856
-0.044295
27.2188
-0.0420175
20.7083
-0.0401685
15.8035
-0.0386922
12.1093
-0.0375116
9.3238
-0.0364706
7.22205
-0.0352943
5.6348
-0.0334921
4.43807
-0.0298954
3.54598
-0.0226666
2.8585
-0.0111131
2.22214
0.0020038
1.52
0.0111874
0.815905
0.0136934
0.295007
0.0152554
0.00611677
0.0213362
-0.103629
0.0220702
-0.156176
-0.145967
0.0221765
-0.0589442
108.711
-0.0487119
82.2732
-0.0407958
62.4133
-0.0346272
47.2827
-0.0296813
35.851
-0.0256569
27.2148
-0.0222905
20.7049
-0.0194143
15.8006
-0.0169119
12.1068
-0.0146435
9.32153
-0.0123853
7.2198
-0.0097587
5.63218
-0.00608441
4.4344
-9.59837e-05
3.53999
0.00932835
2.84908
0.0206414
2.21083
0.0285398
1.5121
0.0280514
0.816398
0.0197434
0.303324
0.0116379
0.0142409
0.0107622
-0.102775
0.00782689
-0.153233
-0.143966
0.00582238
-0.0618718
108.697
-0.0511342
82.2625
-0.0428276
62.405
-0.0363576
47.2762
-0.0311705
35.8458
-0.0269479
27.2105
-0.02341
20.7014
-0.0203772
15.7976
-0.0177241
12.1042
-0.0153003
9.3191
-0.0128651
7.21735
-0.010014
5.62931
-0.00602393
4.43039
0.000447018
3.53351
0.0105685
2.83895
0.0227033
2.19869
0.0312387
1.50356
0.0309676
0.81666
0.0227739
0.31151
0.0141435
0.0228599
0.0119703
-0.100573
0.00826844
-0.14954
-0.141891
0.00619389
-0.0649443
108.683
-0.0536764
82.2512
-0.0449599
62.3963
-0.0381738
47.2695
-0.0327338
35.8404
-0.0283035
27.2061
-0.0245856
20.6977
-0.0213883
15.7944
-0.0185763
12.1014
-0.0159879
9.31651
-0.0133645
7.21473
-0.0102757
5.62623
-0.00595135
4.42607
0.00102188
3.52654
0.0118579
2.82812
0.02482
2.18573
0.0339786
1.49441
0.0339376
0.816707
0.0258499
0.319607
0.0164368
0.0322924
0.0131087
-0.0972629
0.00879987
-0.145224
-0.139717
0.0066228
-0.068169
108.668
-0.0563444
82.2394
-0.0471977
62.3872
-0.0400801
47.2623
-0.034375
35.8347
-0.0297268
27.2014
-0.0258201
20.6937
-0.0224498
15.791
-0.0194702
12.0984
-0.0167076
9.31374
-0.0138842
7.2119
-0.0105435
5.62288
-0.00586522
4.42138
0.00163124
3.51903
0.0131962
2.81654
0.0269792
2.17194
0.0367334
1.48465
0.0369323
0.8165
0.0289459
0.327588
0.0187921
0.0424383
0.0144436
-0.0928845
0.00963867
-0.140428
-0.13727
0.00719192
-0.0715532
108.652
-0.0591446
82.2269
-0.0495466
62.3776
-0.042081
47.2549
-0.0360978
35.8287
-0.0312212
27.1966
-0.0271163
20.6896
-0.0235643
15.7874
-0.0204078
12.0952
-0.0174604
9.31079
-0.0144245
7.20886
-0.0108164
5.61927
-0.00576381
4.41634
0.00227712
3.511
0.0145816
2.80424
0.0291727
2.15735
0.0394925
1.47433
0.0399415
0.816058
0.0320682
0.335472
0.0216467
0.0528806
0.0160382
-0.08729
0.0107386
-0.13512
-0.134425
0.00789127
-0.0751053
108.635
-0.0620836
82.2139
-0.0520117
62.3675
-0.0441812
47.247
-0.0379064
35.8224
-0.0327903
27.1915
-0.0284774
20.6853
-0.0247342
15.7837
-0.021391
12.0919
-0.0182477
9.30764
-0.0149857
7.20559
-0.0110931
5.61537
-0.00564529
4.41088
0.00296113
3.50238
0.0160115
2.79118
0.0313933
2.14196
0.0422511
1.46347
0.0429608
0.815341
0.0352125
0.343217
0.024796
0.0632918
0.0177905
-0.0802562
0.0119873
-0.129326
-0.131058
0.00862063
-0.0788329
108.618
-0.0651683
82.2003
-0.0545991
62.3569
-0.0463857
47.2388
-0.039805
35.8158
-0.0344377
27.1861
-0.0299066
20.6808
-0.0259622
15.7797
-0.022422
12.0884
-0.0190706
9.30429
-0.0155681
7.20209
-0.0113718
5.61118
-0.00550778
4.40502
0.0036848
3.49319
0.0174845
2.77739
0.0336356
2.12582
0.0450063
1.4521
0.0459825
0.814372
0.0383593
0.350851
0.0279433
0.0737282
0.0196506
-0.0719728
0.013368
-0.123034
-0.126993
0.00930144
-0.0827456
108.599
-0.0684058
82.1859
-0.0573145
62.3458
-0.0486995
47.2302
-0.041798
35.8089
-0.0361673
27.1805
-0.0314071
20.676
-0.0272511
15.7756
-0.0235027
12.0846
-0.0199303
9.30071
-0.016172
7.19832
-0.0116508
5.60665
-0.00534938
4.3987
0.00444975
3.48338
0.0189998
2.76283
0.0358959
2.10891
0.0477538
1.44024
0.0489955
0.813124
0.0415045
0.358339
0.030977
0.0842521
0.0214756
-0.0624474
0.0147513
-0.116318
-0.122169
0.00992716
-0.0868518
108.58
-0.0718038
82.1709
-0.0601646
62.3342
-0.051128
47.2212
-0.0438902
35.8017
-0.037983
27.1746
-0.0329823
20.671
-0.0286035
15.7712
-0.0246353
12.0807
-0.0208281
9.29691
-0.0167976
7.1943
-0.0119285
5.60178
-0.00516815
4.39195
0.0052577
3.47296
0.0205562
2.74754
0.03817
2.0913
0.0504865
1.42793
0.0519898
0.811628
0.0446431
0.365695
0.0338749
0.0950388
0.0232498
-0.051828
0.0162233
-0.10928
-0.116531
0.0105843
-0.0911614
108.559
-0.0753701
82.1551
-0.0631558
62.322
-0.053677
47.2117
-0.0460862
35.7941
-0.0398891
27.1684
-0.0346358
20.6658
-0.0300224
15.7666
-0.0258219
12.0765
-0.0217651
9.29284
-0.017445
7.18997
-0.0122038
5.59653
-0.0049621
4.38469
0.00611035
3.46188
0.0221521
2.73149
0.0404506
2.073
0.053196
1.41517
0.0549493
0.80987
0.0477392
0.372902
0.0366813
0.106095
0.0251189
-0.0402444
0.0179564
-0.102125
-0.110007
0.0114337
-0.0956845
108.538
-0.0791129
82.1385
-0.0662954
62.3092
-0.0563523
47.2018
-0.0483913
35.7862
-0.0418899
27.1619
-0.0363712
20.6603
-0.0315108
15.7617
-0.0270648
12.072
-0.0227429
9.28852
-0.0181144
7.18534
-0.0124763
5.5909
-0.00472935
4.37695
0.00700848
3.45015
0.0237842
2.71472
0.0427273
2.05406
0.0558709
1.40204
0.0578408
0.807906
0.0507188
0.380032
0.0394029
0.117427
0.0269456
-0.0277905
0.0195214
-0.0946865
-0.102772
0.0122856
-0.100432
108.516
-0.0830414
82.1211
-0.06959
62.2957
-0.0591601
47.1913
-0.0508106
35.7778
-0.0439899
27.155
-0.0381924
20.6545
-0.033072
15.7566
-0.0283665
12.0673
-0.0237629
9.28391
-0.0188063
7.18038
-0.0127461
5.58483
-0.00446852
4.36867
0.00795103
3.43772
0.0254465
2.69722
0.0449864
2.03451
0.0584923
1.38852
0.0606198
0.805775
0.0535349
0.387115
0.0420677
0.128893
0.0288958
-0.0146005
0.0205557
-0.0863513
-0.0950497
0.0128353
-0.105414
108.492
-0.0871646
82.1029
-0.0730482
62.2816
-0.062107
47.1804
-0.0533498
35.7691
-0.0461939
27.1479
-0.0401034
20.6484
-0.0347093
15.7512
-0.0297294
12.0623
-0.0248271
9.27901
-0.0195212
7.17507
-0.0130141
5.57833
-0.00417927
4.35984
0.0089344
3.42461
0.027129
2.67903
0.0472106
2.01444
0.0610307
1.37471
0.0632514
0.803562
0.0562058
0.394167
0.0447258
0.140386
0.0314375
-0.00131413
0.0211319
-0.0760305
-0.0871143
0.0131969
-0.110643
108.467
-0.0914918
82.0837
-0.0766773
62.2668
-0.0651996
47.1689
-0.0560147
35.7599
-0.0485069
27.1404
-0.0421087
20.642
-0.0364262
15.7455
-0.0311565
12.0571
-0.0259373
9.27378
-0.0202603
7.16939
-0.0132818
5.57134
-0.00386203
4.35041
0.00995277
3.41079
0.0288183
2.66016