/*--------------------------------*- C++ -*----------------------------------*\
  =========                 |
  \\      /  F ield         | OpenFOAM: The Open Source CFD Toolbox
   \\    /   O peration     | Website:  https://openfoam.org
    \\  /    A nd           | Version:  7
     \\/     M anipulation  |
\*---------------------------------------------------------------------------*/
FoamFile
{
    version     2.0;
    format      ascii;
    class       volVectorField;
    location    "84";
    object      U;
}
// * * * * * * * * * * * * * * * * * * * * * * * * * * * * * * * * * * * * * //

dimensions      [0 1 -1 0 0 0 0];

internalField   nonuniform List<vector> 
12842
(
(15.0134 4.31768 -4.35782e-18)
(15.0094 4.33944 -8.9186e-19)
(15.0038 4.36464 -2.27019e-19)
(14.9933 4.3937 6.18389e-19)
(14.9773 4.42874 -2.12448e-18)
(14.9553 4.4723 0)
(14.9254 4.52672 0)
(14.8853 4.59409 -2.34162e-19)
(14.8317 4.6762 1.3405e-18)
(14.7612 4.77445 -1.89378e-21)
(14.6706 4.88979 5.64052e-19)
(14.5577 5.02271 -1.13221e-19)
(14.4213 5.17317 5.9808e-19)
(14.262 5.34054 1.56609e-19)
(14.0818 5.52342 -2.08094e-19)
(13.8845 5.71909 -5.69139e-19)
(13.6753 5.92327 -4.82641e-19)
(13.4603 6.13034 0)
(13.2462 6.33406 3.60647e-20)
(13.0399 6.52842 2.68957e-19)
(12.848 6.70876 3.3565e-20)
(12.6734 6.87077 -1.65759e-19)
(12.5257 7.01759 1.15404e-19)
(15.0139 4.31926 3.36924e-18)
(15.014 4.34353 0)
(15.0132 4.37065 -1.75789e-18)
(15.0081 4.40167 7.00365e-19)
(14.9985 4.43921 1.63315e-18)
(14.9841 4.48622 0)
(14.9633 4.54556 -8.77665e-19)
(14.9335 4.61985 0)
(14.891 4.71124 -1.2707e-18)
(14.8321 4.82118 -9.14598e-20)
(14.753 4.95034 -1.03931e-18)
(14.6511 5.09856 -9.6529e-19)
(14.5253 5.26498 -5.88073e-19)
(14.3762 5.4481 8.15224e-19)
(14.2063 5.64585 0)
(14.0192 5.85498 6.25151e-19)
(13.8193 6.07074 7.14665e-19)
(13.6121 6.28705 -9.29499e-19)
(13.4038 6.49728 0)
(13.2008 6.69533 -3.48599e-19)
(13.0102 6.8765 -5.55268e-19)
(12.8351 7.0377 4.652e-19)
(12.6872 7.17926 -4.85711e-19)
(15.0145 4.32095 0)
(15.019 4.34667 0)
(15.0222 4.37464 6.22233e-19)
(15.0217 4.40655 -3.92726e-18)
(15.0181 4.44546 0)
(15.0112 4.49471 0)
(14.9993 4.55772 7.78547e-19)
(14.9798 4.63765 -5.53071e-20)
(14.9486 4.73708 3.92698e-19)
(14.9013 4.85763 2.23574e-19)
(14.8335 4.99962 2.91382e-19)
(14.742 5.16221 9.59465e-19)
(14.6259 5.3436 2.47158e-19)
(14.4861 5.5414 -1.13224e-18)
(14.3256 5.75296 0)
(14.148 5.97472 -2.80992e-19)
(13.9576 6.20173 3.62294e-19)
(13.759 6.42764 6.12829e-19)
(13.5579 6.64543 7.8802e-19)
(13.3604 6.84885 -5.59531e-19)
(13.1737 7.03293 4.28529e-19)
(13.0011 7.19572 0)
(12.8563 7.33413 1.8613e-19)
(15.0156 4.323 5.13462e-19)
(15.0242 4.34904 -7.2036e-19)
(15.0307 4.37715 1.86851e-18)
(15.0342 4.40917 3.72893e-18)
(15.036 4.4485 -2.38846e-19)
(15.0362 4.49891 -3.00027e-19)
(15.0333 4.56435 7.12345e-19)
(15.0242 4.6486 5.51961e-20)
(15.0045 4.75478 9.67894e-19)
(14.9689 4.88471 -4.76385e-19)
(14.9123 5.03844 -3.60587e-19)
(14.8311 5.21441 1.75788e-19)
(14.7242 5.40974 -2.29712e-19)
(14.5931 5.62113 -1.04361e-18)
(14.4416 5.84535 3.05686e-19)
(14.2737 6.07878 -3.96172e-19)
(14.0934 6.31648 -1.85509e-19)
(13.9046 6.55204 -5.07281e-19)
(13.7122 6.77812 -2.36948e-19)
(13.5219 6.98828 -1.85214e-19)
(13.3413 7.17702 -1.92916e-19)
(13.1733 7.34354 -2.52971e-19)
(13.0336 7.48088 4.77697e-19)
(15.017 4.32532 3.61457e-18)
(15.029 4.35074 0)
(15.0384 4.37849 -1.00989e-19)
(15.0454 4.41004 -1.1178e-18)
(15.0522 4.44899 -1.29716e-19)
(15.0592 4.4995 1.53736e-18)
(15.065 4.56611 6.99487e-19)
(15.0663 4.65331 -2.50693e-18)
(15.0583 4.76484 -1.00774e-18)
(15.0347 4.90288 4.44478e-19)
(14.9897 5.0673 -4.57558e-19)
(14.9188 5.25579 9.93997e-20)
(14.821 5.46427 -1.30525e-19)
(14.6986 5.68834 1.83526e-18)
(14.5562 5.92421 7.9148e-19)
(14.3986 6.16828 -6.74764e-19)
(14.2293 6.41598 0)
(14.0515 6.66104 4.69807e-19)
(13.8693 6.89592 0)
(13.6879 7.11396 6.73513e-20)
(13.5152 7.30889 -1.28813e-19)
(13.3531 7.48108 2.27515e-19)
(13.2201 7.61914 -2.80041e-20)
(15.019 4.32775 -3.10923e-18)
(15.0333 4.3519 0)
(15.0453 4.37894 0)
(15.0551 4.40954 3.27548e-19)
(15.0664 4.44742 -1.00908e-18)
(15.0798 4.49707 -1.37366e-18)
(15.0941 4.56362 -3.57402e-18)
(15.1058 4.65231 2.82649e-18)
(15.1095 4.76769 0)
(15.0983 4.91239 1.61991e-18)
(15.065 5.08625 7.48651e-19)
(15.0047 5.28625 -6.37431e-20)
(14.916 5.50698 0)
(14.8022 5.74278 -7.9146e-19)
(14.6691 5.98914 -6.81035e-19)
(14.5224 6.24269 5.34402e-19)
(14.3653 6.49951 1.336e-19)
(14.2001 6.75382 -8.34513e-19)
(14.0298 6.99791 0)
(13.8589 7.22492 6.41622e-19)
(13.6956 7.4275 -6.99901e-20)
(13.5407 7.60731 -7.7243e-19)
(13.4154 7.74787 8.93237e-20)
(15.0211 4.33007 2.08012e-19)
(15.0368 4.35267 0)
(15.0513 4.37873 0)
(15.0634 4.40805 -3.27343e-19)
(15.0786 4.44428 1.21139e-18)
(15.0977 4.49217 -3.61628e-19)
(15.1197 4.55742 2.44164e-18)
(15.1414 4.64608 2.76832e-19)
(15.157 4.76361 -3.63162e-19)
(15.1586 4.91339 -1.75536e-18)
(15.138 5.09544 -9.94243e-20)
(15.0893 5.30614 6.43047e-19)
(15.0108 5.53867 0)
(14.9061 5.78578 3.61232e-19)
(14.7826 6.04197 -8.41678e-20)
(14.6471 6.30407 1.09586e-19)
(14.503 6.56908 -3.46022e-19)
(14.3516 6.83212 5.00121e-19)
(14.1949 7.08552 4.79782e-19)
(14.0363 7.32228 1.54114e-19)
(13.8841 7.53366 8.48806e-21)
(13.7376 7.72284 3.20785e-19)
(13.621 7.86727 2.2188e-19)
(15.0234 4.33229 0)
(15.0397 4.35316 7.06427e-21)
(15.0565 4.37802 3.44555e-19)
(15.0702 4.40573 -9.69613e-20)
(15.0891 4.4399 -2.37432e-18)
(15.1136 4.48531 4.92504e-19)
(15.1431 4.54836 -8.59335e-20)
(15.1743 4.6358 -2.92959e-18)
(15.201 4.75414 0)
(15.2144 4.90743 -2.94385e-18)
(15.2054 5.09597 1.9133e-19)
(15.1669 5.31561 2.27072e-19)
(15.0972 5.55806 0)
(15.0009 5.81443 -3.57199e-19)
(14.8871 6.07828 3.44108e-19)
(14.7638 6.34691 0)
(14.6345 6.61863 3.44774e-19)
(14.4988 6.88984 0)
(14.3575 7.15288 -3.94057e-19)
(14.2129 7.40064 0)
(14.0732 7.62226 2.02073e-19)
(13.9369 7.82329 -1.11949e-19)
(13.8302 7.97358 -1.53976e-19)
(15.0258 4.33414 0)
(15.0419 4.35341 0)
(15.0605 4.37721 2.36568e-19)
(15.0748 4.4038 -9.39014e-20)
(15.0956 4.43612 2.55909e-18)
(15.1233 4.47895 3.42455e-18)
(15.1585 4.53898 0)
(15.1981 4.62355 2.75494e-18)
(15.2362 4.74022 0)
(15.263 4.89423 6.27764e-18)
(15.2682 5.08681 1.81528e-18)
(15.2428 5.31406 -7.28528e-19)
(15.1834 5.56669 -4.57696e-20)
(15.0946 5.83379 0)
(14.9872 6.10677 -3.6081e-19)
(14.872 6.38209 -2.84791e-19)
(14.754 6.65886 3.37089e-20)
(14.6329 6.93519 -2.34387e-19)
(14.5072 7.20428 -2.1418e-19)
(14.3775 7.45995 0)
(14.2509 7.68903 -8.61643e-20)
(14.1245 7.90016 7.31027e-21)
(14.0263 8.05581 9.25083e-20)
(15.0285 4.33611 2.4674e-20)
(15.0441 4.35389 -1.28436e-20)
(15.0643 4.37659 -6.16847e-19)
(15.0787 4.40216 0)
(15.1014 4.43289 7.02612e-20)
(15.1318 4.47367 4.0715e-19)
(15.1715 4.53159 -4.04776e-18)
(15.2172 4.61438 0)
(15.2633 4.73042 0)
(15.2991 4.88561 -3.29789e-18)
(15.3135 5.08169 -1.94386e-18)
(15.2963 5.31472 -2.19756e-20)
(15.2432 5.57447 4.08263e-19)
(15.1594 5.84854 -1.75275e-20)
(15.0568 6.12693 3.05078e-20)
(14.9485 6.40591 3.05752e-20)
(14.8404 6.68555 1.48359e-19)
(14.7317 6.96551 2.01553e-19)
(14.6196 7.23937 2.49937e-19)
(14.5034 7.50172 1.36111e-19)
(14.3896 7.73695 -6.72207e-20)
(14.2732 7.95653 3.17008e-19)
(14.1846 8.11691 -6.27694e-20)
(15.0313 4.33783 -1.06691e-18)
(15.046 4.35439 2.40653e-20)
(15.0676 4.37602 1.69939e-20)
(15.0821 4.4007 1.11757e-18)
(15.1066 4.4298 -7.99815e-20)
(15.1394 4.4685 -3.81843e-18)
(15.1831 4.52427 7.98049e-18)
(15.2344 4.60525 2.23155e-19)
(15.288 4.72068 -1.62346e-19)
(15.3323 4.87708 -4.0261e-18)
(15.3557 5.07677 6.22829e-20)
(15.3467 5.31571 -1.31631e-18)
(15.3003 5.58268 -3.7378e-19)
(15.2217 5.86359 0)
(15.1244 6.14688 -1.3156e-19)
(15.0234 6.42863 3.89999e-19)
(14.9259 6.71008 -3.36686e-20)
(14.8308 6.99274 -9.15933e-20)
(14.7341 7.27069 2.2186e-21)
(14.6334 7.53952 -1.6435e-19)
(14.5348 7.78085 0)
(14.4306 8.0092 -7.84266e-20)
(14.354 8.17429 0)
(15.034 4.33927 1.69061e-18)
(15.0477 4.35487 -3.52555e-19)
(15.0705 4.37544 4.14496e-20)
(15.085 4.39938 -2.22274e-18)
(15.1111 4.42686 2.0068e-18)
(15.1459 4.46346 -1.10316e-19)
(15.1933 4.51703 -4.20547e-18)
(15.25 4.59605 6.70903e-20)
(15.3106 4.71069 -1.85972e-19)
(15.3632 4.8681 4.17528e-18)
(15.3956 5.07124 0)
(15.3949 5.31605 1.2098e-18)
(15.3555 5.59032 5.06604e-20)
(15.2825 5.87814 -1.24793e-20)
(15.1908 6.16614 1.4056e-19)
(15.0975 6.45002 -7.24295e-20)
(15.0114 6.73226 -1.0183e-19)
(14.9314 7.01655 9.8625e-20)
(14.8522 7.29763 0)
(14.7693 7.57245 2.21369e-20)
(14.6883 7.8195 -3.26244e-20)
(14.5987 8.05701 0)
(14.5364 8.22659 4.96463e-20)
(15.0366 4.34044 -5.11686e-19)
(15.0492 4.35532 -1.24548e-19)
(15.0731 4.37486 4.42711e-20)
(15.0875 4.39818 1.10745e-18)
(15.115 4.42406 -4.02792e-18)
(15.1515 4.45857 1.17253e-20)
(15.2024 4.50988 6.19108e-20)
(15.264 4.58679 4.30375e-18)
(15.3315 4.70041 -9.44171e-20)
(15.3922 4.85853 0)
(15.4335 5.06486 2.9e-18)
(15.4414 5.31538 5.09801e-20)
(15.4093 5.597 1.24752e-20)
(15.3421 5.89184 -1.2815e-20)
(15.2561 6.18442 -2.37559e-21)
(15.1708 6.46982 -1.07617e-19)
(15.0968 6.7517 7.24366e-21)
(15.0333 7.03627 -4.50653e-20)
(14.9736 7.31914 -2.96608e-21)
(14.9111 7.59906 1.73382e-20)
(14.8504 7.85102 1.44578e-20)
(14.7778 8.09801 4.4549e-20)
(14.7323 8.27171 -2.68607e-20)
(15.039 4.34143 -1.81513e-19)
(15.0505 4.35572 4.42763e-19)
(15.0754 4.37428 -6.6218e-22)
(15.0897 4.39709 1.29478e-18)
(15.1185 4.42136 4.26856e-18)
(15.1565 4.4538 -1.23283e-20)
(15.2106 4.50279 -6.54217e-20)
(15.2769 4.57747 2.33839e-19)
(15.3509 4.68984 -3.56726e-18)
(15.4196 4.84841 2.56987e-18)
(15.4699 5.05766 -3.04421e-18)
(15.4866 5.31379 -1.66841e-18)
(15.4622 5.60285 7.67751e-19)
(15.401 5.90488 0)
(15.3205 6.20193 4.53854e-20)
(15.2431 6.48808 0)
(15.1818 6.76814 -1.63737e-20)
(15.136 7.05121 8.79049e-21)
(15.0981 7.33402 -5.28157e-21)
(15.0585 7.61793 -9.7647e-20)
(15.0212 7.87326 -4.86418e-21)
(14.9684 8.12966 1.96264e-20)
(14.9427 8.30673 -5.40798e-20)
(15.0413 4.34225 2.02766e-19)
(15.0518 4.3561 8.48782e-21)
(15.0773 4.37371 1.08402e-21)
(15.0917 4.3961 -1.29273e-18)
(15.1215 4.41882 -2.15793e-18)
(15.1608 4.44919 0)
(15.218 4.49576 4.86724e-20)
(15.2888 4.56803 -4.54976e-18)
(15.3691 4.67888 -1.89805e-19)
(15.4458 4.83758 -2.57478e-18)
(15.5053 5.04945 1.76003e-18)
(15.5312 5.31105 2.66437e-18)
(15.515 5.60764 -7.48443e-19)
(15.4601 5.91715 2.80217e-19)
(15.3851 6.21873 3.38595e-20)
(15.3155 6.50499 7.69118e-22)
(15.267 6.78164 9.50645e-22)
(15.2402 7.06083 -2.35151e-20)
(15.2263 7.34097 1.9654e-20)
(15.2129 7.62585 -8.37573e-20)
(15.2021 7.88313 -1.95755e-20)
(15.1731 8.14482 5.85052e-20)
(15.1691 8.3279 0)
(15.0434 4.34288 1.95823e-19)
(15.0528 4.35644 0)
(15.0791 4.37316 0)
(15.0935 4.39517 -1.42013e-18)
(15.124 4.41637 -2.3389e-18)
(15.1647 4.44469 2.65166e-18)
(15.2246 4.48878 3.5556e-20)
(15.2997 4.55849 -4.23876e-20)
(15.3863 4.66755 3.80694e-18)
(15.4709 4.82603 -4.24304e-20)
(15.5398 5.04021 1.66794e-19)
(15.5754 5.30712 -9.35945e-19)
(15.5679 5.61143 0)
(15.5196 5.92878 -3.02353e-19)
(15.45 6.23502 -1.75982e-19)
(15.3875 6.52064 -4.82506e-20)
(15.3516 6.792 -5.31188e-20)
(15.3445 7.06432 0)
(15.3564 7.33873 0)
(15.372 7.62086 9.84273e-20)
(15.3905 7.87886 6.7573e-20)
(15.3895 8.14113 -1.82022e-19)
(15.4089 8.33268 0)
(15.0454 4.34336 -2.15786e-19)
(15.0538 4.35675 4.18404e-21)
(15.0806 4.37261 1.14645e-21)
(15.0951 4.39429 1.41167e-18)
(15.1263 4.414 4.68819e-18)
(15.1681 4.44028 -5.3525e-18)
(15.2306 4.4818 -3.68626e-20)
(15.3099 4.5488 -4.42764e-20)
(15.4024 4.65579 5.80347e-20)
(15.4951 4.81374 0)
(15.5736 5.02991 -1.80883e-18)
(15.6195 5.30202 1.08333e-18)
(15.6213 5.61427 0)
(15.5798 5.93996 0)
(15.5153 6.25108 9.37208e-20)
(15.4591 6.53525 -3.16085e-21)
(15.4351 6.79904 5.72813e-20)
(15.4479 7.06081 9.35376e-20)
(15.4872 7.32547 -1.94578e-19)
(15.5348 7.60011 -8.59737e-20)
(15.5856 7.8563 3.41934e-19)
(15.6173 8.11472 -3.46346e-19)
(15.6622 8.31435 2.28545e-19)
(15.0473 4.34371 2.75842e-19)
(15.0546 4.35703 1.58854e-19)
(15.082 4.37207 6.95005e-21)
(15.0966 4.39345 -9.17471e-21)
(15.1282 4.41171 -2.39044e-18)
(15.171 4.43594 2.75566e-18)
(15.2359 4.47478 -2.74528e-20)
(15.3192 4.5389 -1.0067e-20)
(15.4177 4.64354 6.04089e-20)
(15.5185 4.80059 2.36308e-20)
(15.607 5.01842 -3.0868e-20)
(15.6637 5.2956 -1.08047e-18)
(15.6756 5.61606 5.70425e-19)
(15.6414 5.95073 -1.66367e-20)
(15.5814 6.26713 0)
(15.5303 6.54906 -9.79501e-21)
(15.5168 6.80267 7.49189e-21)
(15.5491 7.04935 -9.20327e-20)
(15.6168 7.29883 2.41191e-19)
(15.6991 7.55983 1.89113e-19)
(15.786 7.80941 -1.34864e-19)
(15.8553 8.05958 -2.26571e-19)
(15.9281 8.26356 2.80225e-19)
(15.049 4.34396 6.0875e-20)
(15.0553 4.35726 -1.61095e-19)
(15.0833 4.37154 0)
(15.0979 4.39263 0)
(15.1298 4.40946 0)
(15.1736 4.43164 0)
(15.2407 4.46771 2.84112e-20)
(15.3278 4.52877 -1.33439e-20)
(15.4321 4.63075 -3.13547e-20)
(15.5412 4.78652 2.48207e-20)
(15.64 5.00563 -3.23937e-20)
(15.7083 5.28771 0)
(15.7311 5.6167 -1.15436e-18)
(15.7046 5.96113 9.4156e-21)
(15.6485 6.28344 -1.5643e-20)
(15.6007 6.56247 6.8148e-20)
(15.5955 6.80296 -7.87988e-21)
(15.6457 7.0291 3.96697e-20)
(15.7419 7.25627 -3.25547e-20)
(15.8609 7.49568 1.20127e-19)
(15.9878 7.73121 -1.92664e-19)
(16.0992 7.96764 0)
(16.2034 8.16911 1.83015e-19)
(15.0505 4.34412 -7.12477e-19)
(15.0559 4.35744 -3.74484e-20)
(15.0845 4.37099 -2.85141e-21)
(15.0991 4.39184 8.14219e-19)
(15.1312 4.40727 1.2615e-18)
(15.1758 4.42738 1.53696e-20)
(15.2448 4.46057 -3.10353e-18)
(15.3357 4.51837 2.8599e-18)
(15.4457 4.61734 2.26378e-18)
(15.5631 4.77139 0)
(15.6727 4.99135 3.18175e-20)
(15.7535 5.27813 -1.3419e-18)
(15.7883 5.61601 6.1122e-19)
(15.7701 5.97118 2.25924e-19)
(15.7173 6.30038 6.45702e-20)
(15.6703 6.57612 0)
(15.6699 6.8004 0)
(15.7348 6.99967 -1.23212e-19)
(15.8577 7.19566 -2.15757e-19)
(16.0142 7.40324 1.40216e-19)
(16.1842 7.61348 1.12579e-19)
(16.3412 7.82675 1.63648e-19)
(16.4811 8.01561 -2.16885e-19)
(15.0519 4.34423 3.78083e-19)
(15.0564 4.35761 3.87121e-20)
(15.0856 4.37047 -3.84348e-21)
(15.1001 4.39106 1.74154e-20)
(15.1323 4.40508 -1.26406e-18)
(15.1778 4.42307 -1.5116e-18)
(15.2487 4.45325 1.48491e-18)
(15.3432 4.50759 -2.83878e-18)
(15.4589 4.60324 -2.25875e-18)
(15.5849 4.75518 -5.13954e-20)
(15.7056 4.97554 0)
(15.7997 5.26679 1.29772e-18)
(15.8474 5.61394 6.85712e-19)
(15.8381 5.98103 -2.43824e-19)
(15.7877 6.31852 -5.88348e-20)
(15.7384 6.5911 -1.6451e-20)
(15.7378 6.79625 -1.69914e-20)
(15.8121 6.96191 2.40185e-19)
(15.9575 7.11603 0)
(16.1492 7.27804 0)
(16.3626 7.44685 1.44957e-19)
(16.566 7.62284 -3.17811e-19)
(16.7468 7.78682 -2.5491e-19)
(15.0531 4.34419 -4.13572e-19)
(15.0569 4.35766 0)
(15.0866 4.36988 0)
(15.101 4.39033 -1.66912e-18)
(15.1332 4.40308 1.28956e-18)
(15.1791 4.41901 1.54996e-18)
(15.2514 4.44608 -3.70857e-20)
(15.3492 4.49661 1.47856e-18)
(15.4705 4.58837 5.51622e-20)
(15.6053 4.73742 -1.86448e-18)
(15.7381 4.95742 3.55025e-20)
(15.8471 5.25269 -4.61343e-20)
(15.9098 5.60951 -6.83173e-19)
(15.911 5.99017 2.77324e-19)
(15.8622 6.33836 5.22518e-20)
(15.8064 6.60913 5.45224e-21)
(15.798 6.7931 3.27002e-20)
(15.8725 6.9179 -1.17095e-19)
(16.031 7.01754 0)
(16.2508 7.11781 0)
(16.5034 7.22574 -1.1981e-19)
(16.7517 7.34497 1.02176e-19)
(16.9776 7.46656 -2.96724e-19)
(15.0542 4.3444 8.02528e-22)
(15.0574 4.35782 -1.75634e-20)
(15.0876 4.36935 0)
(15.1019 4.38926 4.16771e-19)
(15.1346 4.40028 -2.63532e-18)
(15.1819 4.41384 1.65465e-20)
(15.2564 4.43768 -6.43636e-20)
(15.3581 4.48472 -1.53387e-18)
(15.485 4.57304 3.57838e-20)
(15.6282 4.71963 1.86695e-18)
(15.7722 4.93947 -3.87732e-20)
(15.8953 5.23873 -7.56801e-19)
(15.9724 5.60549 -4.45374e-20)
(15.9835 6.00079 -2.52294e-19)
(15.9346 6.36157 -5.39971e-20)
(15.8682 6.63202 2.5221e-20)
(15.8448 6.79347 0)
(15.9088 6.87173 -2.05825e-20)
(16.0682 6.90662 2.61037e-20)
(16.3033 6.92929 0)
(16.5816 6.95122 1.33963e-19)
(16.8608 6.98451 -1.00512e-19)
(17.1227 7.03691 0)
(15.055 4.34378 4.14666e-19)
(15.0576 4.35788 1.75769e-20)
(15.088 4.36924 0)
(15.1021 4.39002 4.23828e-19)
(15.1338 4.40111 2.67276e-18)
(15.1805 4.41341 1.62347e-18)
(15.2553 4.43427 3.35913e-18)
(15.3594 4.47625 0)
(15.4915 4.55823 2.60743e-18)
(15.6438 4.69855 -1.96815e-18)
(15.8013 4.91413 1.33044e-18)
(15.9427 5.21408 7.80134e-19)
(16.0401 5.58972 -4.75156e-21)
(16.0667 6.00291 6.16555e-21)
(16.0195 6.38418 -2.64355e-20)
(15.936 6.66359 -3.02422e-20)
(15.8819 6.80776 0)
(15.9144 6.8368 6.11449e-21)
(16.0519 6.79319 0)
(16.2771 6.71124 0)
(16.5533 6.61353 -1.31001e-19)
(16.8402 6.5333 -3.53723e-19)
(17.1207 6.49407 2.99215e-19)
(15.0557 4.34341 0)
(15.058 4.35786 -9.73852e-24)
(15.0886 4.369 4.48861e-23)
(15.1026 4.39003 -4.31974e-19)
(15.1343 4.40084 -6.60751e-19)
(15.1813 4.41224 -1.62394e-18)
(15.257 4.43124 -1.69665e-18)
(15.3631 4.47023 -1.80177e-21)
(15.4989 4.54827 -1.26903e-18)
(15.6578 4.68438 -5.69911e-20)
(15.8256 4.89681 5.04558e-20)
(15.9819 5.19707 0)
(16.0973 5.57986 4.95571e-21)
(16.1395 6.00897 -6.41849e-21)
(16.0957 6.4108 3.11448e-20)
(15.9951 6.7033 -2.57411e-21)
(15.9038 6.83788 0)
(15.8873 6.82333 -3.26285e-20)
(15.9721 6.69875 -8.50189e-21)
(16.148 6.50717 0)
(16.3858 6.29349 0)
(16.6475 6.10787 1.99878e-19)
(16.907 5.97384 -1.83801e-19)
(15.0565 4.34303 3.72596e-19)
(15.0583 4.35782 2.32562e-20)
(15.0891 4.36873 0)
(15.103 4.38992 4.32651e-19)
(15.1347 4.40034 -6.86761e-19)
(15.182 4.41079 -1.69544e-18)
(15.2585 4.42789 1.7774e-18)
(15.3666 4.46395 -1.65897e-18)
(15.5061 4.53818 -1.33992e-18)
(15.6716 4.67018 3.07033e-18)
(15.8499 4.87945 -1.38067e-18)
(16.0218 5.17986 -8.8388e-19)
(16.1566 5.56984 -4.6124e-19)
(16.2163 6.01595 0)
(16.1771 6.44216 -2.89077e-21)
(16.0565 6.7556 -1.48809e-19)
(15.9165 6.89062 -6.19184e-21)
(15.8278 6.84089 4.10386e-20)
(15.831 6.64641 0)
(15.9337 6.36485 0)
(16.1089 6.05424 0)
(16.3066 5.77111 -2.68113e-19)
(16.496 5.5404 2.92649e-19)
(15.0571 4.3426 -3.73283e-19)
(15.0586 4.35775 3.04049e-22)
(15.0896 4.36842 0)
(15.1034 4.38977 -4.51367e-19)
(15.135 4.3998 -6.55705e-23)
(15.1825 4.40927 2.5665e-18)
(15.2598 4.42445 -3.60095e-18)
(15.3697 4.45755 5.05816e-18)
(15.5129 4.52787 -1.49258e-21)
(15.6849 4.65558 -1.04001e-18)
(15.8739 4.86131 -7.43045e-19)
(16.062 5.16132 8.83427e-19)
(16.2178 5.55817 4.53896e-19)
(16.2976 6.02249 -1.68973e-19)
(16.2652 6.47798 -1.28416e-21)
(16.123 6.82209 1.49247e-19)
(15.924 6.97087 0)
(15.7443 6.90389 0)
(15.6446 6.65861 -7.96946e-20)
(15.6447 6.29153 0)
(15.7108 5.87617 0)
(15.7998 5.49756 3.37175e-20)
(15.8867 5.18748 8.04977e-20)
(15.0576 4.34212 0)
(15.0589 4.35765 -2.36404e-20)
(15.09 4.36809 1.01319e-23)
(15.1038 4.3896 -1.46557e-20)
(15.1353 4.39924 -6.61553e-23)
(15.183 4.40775 -1.75932e-18)
(15.261 4.42099 1.82345e-18)
(15.3727 4.45106 -3.40049e-18)
(15.5193 4.51735 -1.44264e-18)
(15.6978 4.64049 0)
(15.8976 4.84218 7.392e-19)
(16.1024 5.14104 1.74695e-21)
(16.2806 5.54424 -3.44415e-22)
(16.3832 6.02784 1.67162e-19)
(16.3609 6.51756 0)
(16.1977 6.90313 -1.29157e-19)
(15.9335 7.08473 3.156e-21)
(15.6473 7.02378 0)
(15.4127 6.73394 7.95332e-20)
(15.2613 6.278 0)
(15.1878 5.79009 0)
(15.1717 5.37372 0)
(15.1645 5.03407 -3.37186e-20)
(15.0582 4.3416 0)
(15.0592 4.35752 1.49539e-20)
(15.0905 4.36773 -2.19227e-24)
(15.1042 4.38941 4.67434e-19)
(15.1356 4.39869 7.65253e-19)
(15.1835 4.40624 1.80275e-18)
(15.262 4.41753 0)
(15.3753 4.44453 -1.77019e-18)
(15.5255 4.50664 2.91771e-18)
(15.7103 4.62491 -1.45121e-23)
(15.9208 4.82199 7.87244e-19)
(16.1428 5.11886 -4.98161e-19)
(16.345 5.52764 0)
(16.4738 6.03118 0)
(16.4662 6.55973 -3.70619e-20)
(16.2858 6.99987 1.25504e-19)
(15.9537 7.2386 0)
(15.5416 7.20417 3.13805e-19)
(15.1378 6.88526 2.31833e-19)
(14.8272 6.4019 0)
(14.647 5.93792 -1.54279e-21)
(14.553 5.54746 7.17934e-22)
(14.4639 5.21135 -1.2991e-21)
(15.0587 4.34102 6.18981e-25)
(15.0595 4.35735 -3.31995e-20)
(15.0909 4.36735 -3.54799e-24)
(15.1046 4.38921 0)
(15.1359 4.39813 2.22256e-20)
(15.1839 4.40474 -1.84572e-18)
(15.263 4.41408 -3.97146e-22)
(15.3779 4.43795 1.77154e-18)
(15.5313 4.49574 -1.47453e-18)
(15.7224 4.60884 1.15096e-18)
(15.9438 4.80072 2.40492e-20)
(16.1835 5.09462 1.01637e-18)
(16.4114 5.50793 -5.68607e-19)
(16.57 6.0315 1.02715e-21)
(16.5835 6.60358 8.01257e-20)
(16.3936 7.1142 -1.84894e-19)
(15.9934 7.43469 1.26645e-20)
(15.4407 7.45164 -3.21431e-19)
(14.8682 7.16334 -2.27835e-19)
(14.4335 6.74349 0)
(14.1584 6.32971 -1.43743e-19)
(13.9552 5.93782 0)
(13.745 5.57397 6.25312e-20)
(15.0593 4.3404 0)
(15.0598 4.35716 1.82509e-20)
(15.0913 4.36694 2.04158e-19)
(15.105 4.389 2.5118e-23)
(15.1362 4.39759 -1.60028e-18)
(15.1842 4.40326 9.34304e-19)
(15.2639 4.41064 0)
(15.3802 4.43133 0)
(15.5369 4.48467 -8.1886e-22)
(15.7341 4.59227 -1.15028e-18)
(15.9664 4.77832 2.44959e-20)
(16.2243 5.06816 -5.17542e-19)
(16.4796 5.48461 5.64909e-19)
(16.6724 6.02778 0)
(16.7155 6.64846 -4.1711e-20)
(16.5269 7.24477 1.77229e-19)
(16.0629 7.66685 -2.446e-19)
(15.3738 7.77462 -2.4633e-20)
(14.6514 7.59078 0)
(14.0719 7.24237 0)
(13.6213 6.7823 5.70242e-20)
(13.2239 6.27562 2.39294e-19)
(12.7843 5.79217 -9.45033e-20)
(15.0598 4.33973 0)
(15.0601 4.35693 -5.97788e-24)
(15.0917 4.36651 -2.04437e-19)
(15.1054 4.38878 2.73572e-19)
(15.1364 4.39705 8.11528e-19)
(15.1845 4.4018 1.91943e-22)
(15.2647 4.40723 1.00895e-18)
(15.3824 4.42469 9.3298e-19)
(15.5422 4.47342 -1.5609e-18)
(15.7454 4.57521 0)
(15.9887 4.75477 2.49568e-20)
(16.2651 5.03934 -5.62413e-19)
(16.5495 5.45719 0)
(16.7813 6.01914 -9.87608e-22)
(16.8642 6.69231 -3.77579e-20)
(16.6902 7.38279 0)
(16.1751 7.92357 3.85998e-21)
(15.372 8.18028 2.34374e-20)
(14.4982 8.1538 -6.37111e-19)
(13.6808 7.83099 0)
(12.9232 7.2355 0)
(12.2285 6.49408 -1.32293e-19)
(11.4907 5.77369 5.03278e-19)
(15.0603 4.33902 -1.55204e-24)
(15.0603 4.35667 2.04777e-24)
(15.0921 4.36605 0)
(15.1058 4.38854 2.90541e-19)
(15.1367 4.39652 -4.54502e-22)
(15.1848 4.40037 3.91366e-22)
(15.2654 4.40383 -1.00944e-18)
(15.3844 4.41801 -9.34699e-19)
(15.5472 4.46201 1.56206e-18)
(15.7563 4.55766 -1.22512e-18)
(16.0104 4.73003 -8.62381e-19)
(16.3056 5.008 5.65804e-19)
(16.6209 5.42522 3.35957e-19)
(16.8969 6.00441 1.38778e-19)
(17.0303 6.73004 4.70782e-20)
(16.8866 7.51564 -8.67512e-21)
(16.3489 8.20438 3.48661e-19)
(15.4704 8.69151 2.85366e-19)
(14.4215 8.86535 1.95159e-19)
(13.2587 8.56905 -2.45819e-19)
(12.0646 7.87892 3.13393e-19)
(10.9822 6.95736 0)
(10.0279 6.04041 -2.76164e-19)
(15.0608 4.33826 0)
(15.0606 4.35638 3.24918e-20)
(15.0926 4.36557 2.30868e-19)
(15.1062 4.38829 -2.75575e-19)
(15.1369 4.39599 4.32255e-19)
(15.185 4.39895 0)
(15.2659 4.40045 1.24957e-21)
(15.3861 4.4113 -1.6342e-21)
(15.5519 4.45043 8.07496e-19)
(15.7667 4.53961 1.85491e-18)
(16.0314 4.7041 -9.07083e-19)
(16.3457 4.97403 -4.59385e-21)
(16.6934 5.3883 2.42797e-20)
(17.0187 5.98176 -1.39216e-19)
(17.2133 6.75454 0)
(17.1222 7.63652 -2.3299e-19)
(16.6111 8.52727 3.55209e-19)
(15.699 9.32544 -3.40608e-19)
(14.4245 9.71586 -2.57269e-19)
(12.8095 9.49791 -5.18491e-20)
(11.0906 8.89074 3.92896e-19)
(9.57981 8.1177 -3.07676e-19)
(8.39016 7.38144 -3.76678e-19)
(15.0613 4.33746 1.02031e-19)
(15.0609 4.35605 2.24709e-21)
(15.093 4.36507 -2.3117e-19)
(15.1066 4.38803 -2.89603e-19)
(15.1371 4.39547 -8.72176e-19)
(15.1852 4.39756 -1.01845e-18)
(15.2663 4.39709 -1.26772e-21)
(15.3877 4.40458 1.65776e-21)
(15.5561 4.43869 -8.08062e-19)
(15.7765 4.52108 -6.27064e-19)
(16.0517 4.67696 1.84808e-18)
(16.3852 4.93735 -6.37527e-19)
(16.7667 5.34597 -3.63549e-19)
(17.1459 5.94872 1.79533e-19)
(17.4129 6.75948 6.48946e-21)
(17.408 7.74772 1.94055e-19)
(16.9873 8.90318 -3.76423e-19)
(16.0544 10.0273 6.30334e-19)
(14.4715 10.557 1.93654e-19)
(12.3515 10.3901 0)
(10.1787 9.91763 -5.18277e-19)
(8.38221 9.39202 6.13302e-19)
(7.02287 8.93657 -8.24798e-19)
(15.0617 4.33661 -1.02141e-19)
(15.0612 4.3557 -5.32122e-20)
(15.0933 4.36454 -2.44298e-19)
(15.1069 4.38775 3.01395e-19)
(15.1372 4.39496 4.39762e-19)
(15.1853 4.39619 1.01922e-18)
(15.2667 4.39376 1.06919e-18)
(15.389 4.39784 0)
(15.5601 4.42681 8.35468e-19)
(15.7858 4.50209 -6.54144e-19)
(16.0713 4.64862 -9.37461e-19)
(16.4238 4.89789 6.368e-19)
(16.8403 5.29769 0)
(17.2771 5.90258 -1.72362e-19)
(17.6298 6.74123 2.18856e-20)
(17.756 7.85335 9.75998e-20)
(17.4811 9.30563 -1.34979e-19)
(16.4836 10.6644 -2.37836e-19)
(14.4844 11.1709 9.11423e-19)
(11.858 10.9488 -6.52982e-19)
(9.37197 10.495 0)
(7.47723 10.0139 1.47244e-18)
(6.07971 9.61465 -1.95647e-18)
(15.0622 4.33572 0)
(15.0614 4.35531 1.84003e-20)
(15.0937 4.36399 2.44472e-19)
(15.1072 4.38746 -3.01831e-19)
(15.1374 4.39445 -1.47963e-22)
(15.1853 4.39484 4.16144e-22)
(15.2669 4.39045 -5.27535e-19)
(15.3902 4.39109 0)
(15.5637 4.4148 -8.36019e-19)
(15.7945 4.48265 -1.40435e-20)
(16.0899 4.6191 0)
(16.4614 4.8556 -3.47193e-19)
(16.9133 5.24288 0)
(17.4109 5.84108 8.17614e-21)
(17.8659 6.69862 -1.03107e-19)
(18.1717 7.94952 -8.55936e-20)
(18.064 9.67272 -1.3309e-19)
(16.9015 11.1069 5.88867e-19)
(14.389 11.4559 -4.27711e-19)
(11.3046 11.1473 -7.93841e-19)
(8.60104 10.6755 1.33401e-18)
(6.65555 10.1438 -1.12787e-18)
(5.25963 9.70539 3.79623e-18)
(15.0626 4.33479 -1.03402e-19)
(15.0617 4.35489 2.06421e-20)
(15.0941 4.36342 -1.27721e-19)
(15.1076 4.38715 -1.9113e-22)
(15.1375 4.39394 4.92532e-22)
(15.1853 4.39351 -1.11018e-21)
(15.267 4.38718 -5.42677e-19)
(15.3911 4.38433 4.05487e-21)
(15.5669 4.40266 -3.02297e-21)
(15.8026 4.46278 -1.42712e-20)
(16.1077 4.58843 -5.12105e-19)
(16.4976 4.81048 3.35592e-19)
(16.9849 5.18099 1.4289e-20)
(17.546 5.76276 -1.07046e-20)
(18.122 6.63126 6.82532e-20)
(18.6485 8.02048 0)
(18.6871 9.93475 -1.40208e-19)
(17.2376 11.2899 -4.15372e-19)
(14.1737 11.4393 4.81051e-19)
(10.7237 11.0992 -1.45868e-18)
(7.83979 10.6479 7.74573e-19)
(5.8024 10.0742 -1.77507e-19)
(4.36262 9.58838 -2.05775e-18)
(15.063 4.33382 2.06278e-19)
(15.0619 4.35444 -2.06757e-20)
(15.0944 4.36282 -2.66213e-21)
(15.1079 4.38683 0)
(15.1376 4.39344 0)
(15.1853 4.39221 -5.41031e-19)
(15.267 4.38393 -5.57854e-19)
(15.3919 4.37758 0)
(15.5698 4.39041 -3.84438e-21)
(15.8101 4.44251 6.88199e-19)
(16.1244 4.55665 5.2075e-19)
(16.5322 4.76253 -1.10412e-20)
(17.0543 5.11163 -1.47551e-20)
(17.6811 5.66707 3.21683e-20)
(18.3967 6.53777 -1.68655e-20)
(19.1684 8.04186 0)
(19.2992 10.0374 1.35559e-19)
(17.4527 11.2038 -9.67421e-20)
(13.8554 11.1627 1.15423e-18)
(10.1428 10.832 -6.4532e-19)
(7.06139 10.4278 -1.11027e-18)
(4.85905 9.85046 1.81104e-18)
(3.33352 9.33081 0)
(15.0634 4.3328 -2.05098e-19)
(15.0622 4.35396 5.07442e-24)
(15.0948 4.3622 1.30674e-19)
(15.1082 4.3865 0)
(15.1377 4.39295 0)
(15.1852 4.39094 -7.3923e-21)
(15.2669 4.38072 1.12344e-18)
(15.3925 4.37084 0)
(15.5724 4.37807 4.4768e-19)
(15.817 4.42186 0)
(16.1399 4.52383 0)
(16.5648 4.71179 -1.26453e-20)
(17.1203 5.03463 1.60102e-20)
(17.8148 5.55419 1.55192e-19)
(18.6851 6.41491 2.10717e-20)
(19.706 7.98656 1.82869e-20)
(19.856 9.94785 -1.25666e-19)
(17.53 10.8593 0)
(13.4426 10.6362 -3.83756e-19)
(9.5665 10.299 0)
(6.29269 9.92686 -2.22462e-19)
(3.89908 9.40075 -3.58325e-19)
(2.27529 8.92368 0)
(15.0637 4.33175 1.53274e-19)
(15.0624 4.35345 -1.30444e-20)
(15.0951 4.36156 0)
(15.1085 4.38615 1.66146e-19)
(15.1378 4.39246 -2.41796e-19)
(15.1851 4.38969 5.50013e-19)
(15.2668 4.37755 -5.66495e-19)
(15.3929 4.36411 -5.36868e-19)
(15.5746 4.36565 -4.44786e-19)
(15.8231 4.40087 -6.22688e-21)
(16.1542 4.49001 8.00271e-21)
(16.5951 4.65832 4.09516e-19)
(17.1822 4.9501 1.80935e-20)
(17.9453 5.4247 -2.15511e-19)
(18.979 6.25779 2.58025e-20)
(20.2326 7.83104 0)
(20.3246 9.65354 0)
(17.4629 10.2797 0)
(12.9242 9.86825 0)
(8.97468 9.49554 1.09531e-19)
(5.53842 9.16416 1.08468e-18)
(3.06272 8.71891 -1.10145e-18)
(1.39632 8.32387 0)
(15.0641 4.33065 -5.10052e-20)
(15.0627 4.3529 2.72027e-20)
(15.0955 4.36089 0)
(15.1089 4.38579 -1.66407e-19)
(15.1378 4.39197 4.88254e-19)
(15.185 4.38846 0)
(15.2666 4.37442 0)
(15.3931 4.35741 5.348e-19)
(15.5764 4.35315 0)
(15.8286 4.37957 -3.63425e-19)
(16.1672 4.45527 -2.9395e-19)
(16.6227 4.60226 -1.96578e-19)
(17.239 4.85846 3.12231e-19)
(18.0703 5.27941 0)
(19.2673 6.06103 0)
(20.7198 7.55975 2.02584e-20)
(20.6829 9.15996 -2.49233e-20)
(17.2489 9.5025 0)
(12.2793 8.89923 6.23683e-20)
(8.38191 8.44751 -1.23061e-19)
(4.79407 8.11885 -6.85775e-19)
(2.19661 7.68826 1.07445e-18)
(0.635389 7.29696 0)
(15.0644 4.32952 4.18671e-24)
(15.0629 4.35233 -2.94335e-20)
(15.0958 4.3602 -5.13493e-23)
(15.1092 4.38541 -8.65102e-20)
(15.1379 4.39149 -2.46455e-19)
(15.1848 4.38727 2.86509e-19)
(15.2662 4.37133 9.69709e-22)
(15.3931 4.35073 -2.76908e-19)
(15.5779 4.34061 4.7632e-19)
(15.8333 4.35799 3.64641e-19)
(16.1787 4.41971 2.85836e-19)
(16.6473 4.5438 -2.12805e-19)
(17.2899 4.76034 -3.11895e-19)
(18.1869 5.11924 -3.03938e-20)
(19.5372 5.82032 3.65715e-20)
(21.1421 7.16723 4.38784e-20)
(20.9207 8.4883 -5.46062e-20)
(16.9011 8.58086 0)
(11.4882 7.80878 -6.80451e-20)
(7.74247 7.26463 0)
(4.04894 6.94221 7.2407e-20)
(1.62266 6.4469 0)
(0.315708 5.8485 2.65666e-20)
(15.0647 4.32835 2.57713e-20)
(15.0631 4.35173 1.52625e-20)
(15.0961 4.35948 7.24926e-20)
(15.1095 4.38501 -1.42869e-21)
(15.138 4.39102 -3.80224e-22)
(15.1846 4.3861 4.41601e-21)
(15.2658 4.36828 -2.9801e-19)
(15.3929 4.34409 -5.05837e-21)
(15.5789 4.32802 -4.69211e-19)
(15.8373 4.33616 -6.66951e-21)
(16.1888 4.38339 3.08723e-19)
(16.6687 4.4832 0)
(17.3342 4.6566 -2.38515e-20)
(18.2919 4.94529 2.95041e-20)
(19.7757 5.53389 9.89008e-20)
(21.479 6.65783 0)
(21.0395 7.66932 0)
(16.4559 7.57629 -6.68256e-20)
(10.5808 6.72398 0)
(7.16998 6.08077 -3.03756e-21)
(3.21514 5.7928 2.07582e-20)
(0.27315 5.81443 5.64372e-21)
(-0.982766 4.99353 -6.28747e-19)
(15.065 4.32714 -5.17748e-20)
(15.0634 4.35109 -8.69338e-21)
(15.0965 4.35874 -1.09448e-19)
(15.1098 4.3846 8.88392e-20)
(15.138 4.39055 1.28583e-19)
(15.1844 4.38496 -4.38679e-19)
(15.2653 4.36529 2.98662e-19)
(15.3925 4.33749 2.75351e-19)
(15.5796 4.31542 7.62925e-21)
(15.8405 4.31414 -5.52467e-21)
(16.1973 4.34644 -3.00287e-19)
(16.6867 4.42079 -1.18591e-19)
(17.3711 4.54823 1.59614e-19)
(18.3814 4.759 1.78272e-19)
(19.9704 5.20318 -9.87798e-20)
(21.7155 6.04373 0)
(21.0507 6.73318 0)
(15.9795 6.52433 -1.86626e-19)
(9.62625 5.71012 2.81306e-19)
(6.51971 4.97067 0)