/*--------------------------------*- C++ -*----------------------------------*\
  =========                 |
  \\      /  F ield         | OpenFOAM: The Open Source CFD Toolbox
   \\    /   O peration     | Website:  https://openfoam.org
    \\  /    A nd           | Version:  7
     \\/     M anipulation  |
\*---------------------------------------------------------------------------*/
FoamFile
{
    version     2.0;
    format      ascii;
    class       volScalarField;
    location    "84";
    object      yPlus;
}
// * * * * * * * * * * * * * * * * * * * * * * * * * * * * * * * * * * * * * //

dimensions      [0 0 0 0 0 0 0];

internalField   uniform 0;

boundaryField
{
    inlet
    {
        type            calculated;
        value           uniform 0;
    }
    outlet
    {
        type            calculated;
        value           uniform 0;
    }
    suction_side
    {
        type            calculated;
        value           nonuniform List<scalar> 
56
(
28.3863
32.9484
37.2796
41.3303
45.8112
49.8104
54.0048
56.7615
53.2231
35.7782
24.1013
27.7613
26.4301
26.4917
26.1288
30.1439
35.0787
40.0002
43.897
45.0421
42.169
44.1718
32.5086
39.3066
42.2366
39.4553
36.0753
32.6918
30.2325
28.3293
27.7154
26.8545
25.5098
26.6709
27.9892
30.0647
33.0853
36.2146
40.4133
43.27
42.4624
30.5003
20.246
21.776
24.5785
25.1378
23.3654
19.7923
17.1273
21.0226
23.0729
24.1034
25.7516
26.6216
25.4631
27.2564
)
;
    }
    pressure_side
    {
        type            calculated;
        value           nonuniform List<scalar> 
56
(
56.3528
52.9277
52.1773
49.7923
48.5018
47.0408
45.5642
44.0013
42.7273
41.7839
41.0267
40.4031
39.8937
39.4477
39.0715
38.7301
38.425
38.1383
37.8574
37.5724
37.265
36.9354
36.5931
36.275
36.0183
35.8581
35.8229
35.9183
36.1343
36.4014
36.6165
36.6518
36.1397
34.8445
33.0157
30.5601
27.4007
23.5858
19.3892
15.4376
12.4317
6.95402
5.95398
5.1234
5.44878
6.88672
7.81732
8.95902
11.5377
11.291
13.6188
14.0606
16.8718
17.9563
20.7812
23.8523
)
;
    }
    trailing_edge
    {
        type            calculated;
        value           nonuniform List<scalar> 2(172.382 97.5088);
    }
    defaultFaces
    {
        type            empty;
    }
}


// ************************************************************************* //
