/*--------------------------------*- C++ -*----------------------------------*\
  =========                 |
  \\      /  F ield         | OpenFOAM: The Open Source CFD Toolbox
   \\    /   O peration     | Website:  https://openfoam.org
    \\  /    A nd           | Version:  7
     \\/     M anipulation  |
\*---------------------------------------------------------------------------*/
FoamFile
{
    version     2.0;
    format      ascii;
    class       volScalarField;
    location    "0.16";
    object      p;
}
// * * * * * * * * * * * * * * * * * * * * * * * * * * * * * * * * * * * * * //

dimensions      [0 2 -2 0 0 0 0];

internalField   nonuniform List<scalar> 
1600
(
4.86441e-09
-0.00118988
-0.00391787
-0.00758718
-0.0115265
-0.0152411
-0.0183736
-0.0206719
-0.0219687
-0.0221643
-0.0212131
-0.0191132
-0.015898
-0.0116305
-0.00639784
-0.000307715
0.00651497
0.0139309
0.0217888
0.029928
0.0381805
0.0463738
0.0543337
0.0618875
0.0688677
0.0751159
0.0804875
0.0848568
0.0881221
0.0902121
0.0910919
0.0907702
0.089307
0.0868235
0.0835127
0.0796533
0.0756252
0.0719363
0.0692536
0.0681392
0.0011871
-2.57388e-06
-0.00221648
-0.00506369
-0.00810164
-0.0109655
-0.0133711
-0.0151056
-0.0160191
-0.0160157
-0.0150453
-0.0130966
-0.0101903
-0.00637443
-0.0017202
0.00368173
0.0097243
0.0162866
0.0232362
0.0304321
0.0377263
0.0449671
0.0520015
0.0586784
0.064852
0.0703856
0.075156
0.0790575
0.0820073
0.0839504
0.0848649
0.0847677
0.0837205
0.0818363
0.0792856
0.0763019
0.0731869
0.070316
0.0681355
0.0670267
0.00392766
0.00220231
-4.16782e-05
-0.00259735
-0.00522201
-0.00764607
-0.0096462
-0.0110509
-0.0117347
-0.011614
-0.0106428
-0.00880799
-0.00612483
-0.00263308
0.00160644
0.00651474
0.0119974
0.017947
0.0242453
0.0307657
0.0373754
0.0439378
0.0503153
0.0563723
0.061978
0.0670107
0.0713609
0.074936
0.0776642
0.0794989
0.0804237
0.0804561
0.0796526
0.078112
0.0759781
0.0734416
0.0707422
0.0681614
0.0659571
0.0643417
0.00768592
0.00507802
0.00244062
-0.000184476
-0.00273546
-0.00501271
-0.00684217
-0.00809219
-0.00866446
-0.00849229
-0.00753907
-0.00579545
-0.00327622
-1.75409e-05
0.00392559
0.00848181
0.0135656
0.0190792
0.0249151
0.0309573
0.0370841
0.0431701
0.0490888
0.0547151
0.0599288
0.0646174
0.0686802
0.0720317
0.0746054
0.0763576
0.0772716
0.0773607
0.0766712
0.0752847
0.073318
0.0709226
0.0682909
0.0656376
0.06305
0.0605843
0.0118682
0.00823324
0.00502925
0.00215295
-0.000500368
-0.00278709
-0.00457473
-0.00576871
-0.00629786
-0.00611397
-0.00519208
-0.0035292
-0.00114245
0.00193294
0.00564545
0.00992902
0.0147047
0.0198826
0.0253633
0.0310397
0.036799
0.0425243
0.0480979
0.0534026
0.0583258
0.0627614
0.0666141
0.069802
0.0722607
0.0739462
0.0748384
0.0749432
0.0742951
0.0729575
0.0710209
0.0686021
0.0658545
0.0629415
0.0597925
0.0563266
0.0160493
0.0113443
0.0074812
0.004236
0.0013581
-0.00105158
-0.00289421
-0.00410783
-0.00464665
-0.00448062
-0.00359745
-0.00200213
0.000284138
0.00322511
0.00677064
0.010858
0.0154129
0.0203512
0.0255798
0.0309982
0.0365004
0.0419761
0.0473137
0.0524018
0.0571323
0.0614031
0.0651211
0.0682056
0.0705912
0.072231
0.0730988
0.0731918
0.0725313
0.0711631
0.0691541
0.0665911
0.063598
0.0603001
0.0564899
0.0519735
0.0199205
0.0141504
0.00958151
0.00589153
0.00270443
8.98718e-05
-0.00187925
-0.00316864
-0.00375527
-0.00362626
-0.00278197
-0.00123614
0.000984703
0.00384178
0.00728468
0.0112523
0.0156733
0.0204673
0.0255457
0.0308129
0.0361673
0.0415034
0.0467134
0.0516893
0.0563252
0.0605202
0.0641812
0.0672258
0.0695855
0.0712078
0.072059
0.0721259
0.0714165
0.0699601
0.0678031
0.0650078
0.0616766
0.0579093
0.0533825
0.0478111
0.0232491
0.0164379
0.0111454
0.00696705
0.00341816
0.000545989
-0.00159612
-0.00299717
-0.00365392
-0.00356926
-0.00275575
-0.00123611
0.000957048
0.00378146
0.0071852
0.0111073
0.015478
0.0202191
0.0252448
0.0304626
0.035774
0.041076
0.0462628
0.0512277
0.0558648
0.0600723
0.0637548
0.0668263
0.0692125
0.0708538
0.0717073
0.0717485
0.0709726
0.0693934
0.0670393
0.0639535
0.0602237
0.055934
0.0506615
0.0440473
0.0258537
0.0180281
0.0120087
0.00731945
0.00337903
0.000218752
-0.00212273
-0.00365387
-0.00438871
-0.00434443
-0.00354518
-0.00202248
0.000184596
0.0030295
0.00645798
0.0104081
0.0148102
0.0195873
0.024655
0.0299224
0.0352923
0.040663
0.0459289
0.0509826
0.0557167
0.0600265
0.0638122
0.0669819
0.0694541
0.0711602
0.0720468
0.0720778
0.0712349
0.069518
0.0669401
0.0635286
0.0593624
0.0545173
0.0484828
0.0408371
0.027584
0.0187657
0.0120219
0.00681186
0.0024656
-0.000996966
-0.00354843
-0.00521367
-0.00602204
-0.00600371
-0.00519371
-0.00363223
-0.00136495
0.00155678
0.00507559
0.00912783
0.0136431
0.0185443
0.0237476
0.0291622
0.0346915
0.040233
0.0456803
0.0509237
0.0558528
0.0603579
0.0643334
0.0676796
0.0703059
0.0721331
0.0730963
0.0731466
0.0722525
0.0704003
0.0675894
0.0638346
0.0592098
0.0537878
0.0469786
0.0383033
0.0283071
0.0185091
0.0110445
0.00531125
0.000555508
-0.00321138
-0.00597073
-0.00776188
-0.00862806
-0.00861146
-0.00775737
-0.00611464
-0.00373568
-0.000676952
0.00300053
0.00723071
0.0119418
0.0170558
0.0224882
0.028148
0.0339375
0.0397529
0.0454854
0.0510221
0.0562477
0.0610465
0.0653049
0.068914
0.0717723
0.0737887
0.074885
0.0749987
0.0740844
0.072115
0.0690771
0.0649749
0.0598804
0.0538669
0.0462681
0.0365518
0.0278976
0.0171233
0.00893977
0.00268512
-0.00247632
-0.0065401
-0.0094948
-0.0113931
-0.0122912
-0.0122427
-0.0113031
-0.00952968
-0.00698188
-0.00372151
0.000186372
0.00467284
0.00966409
0.0150807
0.0208371
0.0268409
0.0329929
0.0391871
0.0453115
0.0512488
0.0568777
0.0620748
0.0667174
0.0706856
0.0738654
0.0761517
0.0774516
0.0776875
0.0767991
0.0747453
0.0715003
0.0670583
0.0614911
0.0548747
0.0464676
0.0356836
0.0262301
0.0144732
0.00556977
-0.00120201
-0.00675982
-0.0111054
-0.0142338
-0.0162109
-0.0171054
-0.0169824
-0.0159075
-0.0139468
-0.0111668
-0.0076351
-0.00342106
0.00140318
0.00676146
0.0125726
0.0187493
0.0251979
0.0318169
0.0384978
0.0451245
0.0515745
0.0577196
0.0634277
0.0685652
0.0729998
0.076603
0.079254
0.0808432
0.0812758
0.0804752
0.0783848
0.0749656
0.0702018
0.0641657
0.0569374
0.0476971
0.0358041
0.0231738
0.0104189
0.00079141
-0.0064918
-0.0124321
-0.0170374
-0.0203097
-0.0223278
-0.0231737
-0.0229243
-0.0216557
-0.0194433
-0.0163611
-0.0124827
-0.00788215
-0.00263494
0.00318019
0.0094801
0.016176
0.0231724
0.0303657
0.0376444
0.0448882
0.0519687
0.0587501
0.0650905
0.0708444
0.0758652
0.080008
0.0831342
0.085115
0.0858361
0.0852018
0.0831385
0.0795916
0.0745346
0.06804
0.0601921
0.0500883
0.0370299
0.0185881
0.00481144
-0.00554768
-0.0133354
-0.01964
-0.0244763
-0.0278538
-0.0298657
-0.0306078
-0.0301701
-0.0286402
-0.0261031
-0.0226413
-0.0183345
-0.0132617
-0.00750215
-0.00113696
0.00574894
0.0130653
0.0207151
0.028593
0.0365843
0.0445646
0.0523995
0.0599452
0.0670491
0.0735526
0.0792932
0.0841077
0.0878369
0.0903302
0.0914505
0.0910801
0.0891246
0.0855121
0.0802022
0.0732667
0.0647933
0.0537901
0.0394961
0.0123194
-0.00251129
-0.0136127
-0.0218965
-0.0285424
-0.0335735
-0.0370081
-0.0389554
-0.0395274
-0.0388284
-0.0369587
-0.0340145
-0.030087
-0.025263
-0.0196266
-0.0132606
-0.00624842
0.00132362
0.00936437
0.0177758
0.0264511
0.0352734
0.0441144
0.052834
0.06128
0.0692889
0.0766879
0.0832969
0.0889325
0.0934121
0.0965596
0.0982116
0.0982239
0.0964776
0.0928788
0.0873701
0.0800201
0.0709186
0.0589752
0.0433618
0.00419758
-0.011728
-0.0235853
-0.0323548
-0.0393132
-0.0444936
-0.0479258
-0.0497377
-0.0500598
-0.0490132
-0.046713
-0.0432679
-0.038779
-0.0333408
-0.0270427
-0.019971
-0.012211
-0.0038497
0.00502159
0.0143049
0.023893
0.0336678
0.0434981
0.0532385
0.062729
0.0717949
0.0802485
0.087891
0.0945161
0.099915
0.103882
0.106223
0.106762
0.10535
0.101865
0.0962287
0.088502
0.0787745
0.0658467
0.048817
-0.00596735
-0.0230383
-0.0356683
-0.0449099
-0.052144
-0.057417
-0.060773
-0.0623627
-0.0623388
-0.0608423
-0.0580059
-0.0539527
-0.0487951
-0.0426362
-0.035571
-0.0276887
-0.019076
-0.00981961
-9.74072e-06
0.0102571
0.0208751
0.0317261
0.0426775
0.0535801
0.0642668
0.0745522
0.0842333
0.0930914
0.100895
0.107406
0.112386
0.115601
0.11684
0.115916
0.112671
0.106998
0.0989477
0.0886038
0.0746447
0.0560883
-0.0183891
-0.0366675
-0.05009
-0.0597853
-0.0672479
-0.0725414
-0.0757292
-0.0769898
-0.0765031
-0.0744346
-0.0709379
-0.0661531
-0.0602061
-0.0532089
-0.0452624
-0.0364586
-0.0268843
-0.0166248
-0.00576723
0.00559535
0.0173603
0.029412
0.0416184
0.0538284
0.0658694
0.0775464
0.0886414
0.0989149
0.108109
0.115952
0.122165
0.126475
0.128622
0.128372
0.125526
0.119936
0.111633
0.100693
0.0856547
0.0654476
-0.0333104
-0.0528728
-0.067111
-0.0772347
-0.0848642
-0.0900859
-0.0929889
-0.0937872
-0.0926946
-0.0899067
-0.0856028
-0.0799434
-0.0730695
-0.0651036
-0.0561521
-0.0463093
-0.0356608
-0.0242884
-0.0122741
0.000295134
0.0133227
0.0266983
0.0402935
0.0539579
0.067516
0.0807649
0.0934727
0.105379
0.116198
0.12562
0.133326
0.138988
0.142291
0.142946
0.140695
0.13534
0.126883
0.115382
0.0992176
0.0772204
-0.0510098
-0.071952
-0.0870327
-0.0975492
-0.105263
-0.110293
-0.112763
-0.112931
-0.111055
-0.107369
-0.102082
-0.0953809
-0.0874231
-0.0783427
-0.0682518
-0.0572456
-0.0454068
-0.0328112
-0.0195327
-0.00564909
0.00875281
0.0235716
0.0386863
0.053951
0.0691908
0.0841978
0.0987284
0.112502
0.125204
0.136487
0.145978
0.153295
0.158054
0.159893
0.158484
0.15356
0.145083
0.133077
0.115742
0.091798
-0.0718115
-0.0942547
-0.110209
-0.121067
-0.128755
-0.133434
-0.135277
-0.134602
-0.131722
-0.126917
-0.120438
-0.112498
-0.103276
-0.0929176
-0.0815409
-0.06924
-0.0560921
-0.0421638
-0.0275175
-0.0122174
0.00366349
0.0200376
0.0367959
0.053802
0.0708863
0.0878401
0.104412
0.120304
0.135172
0.148627
0.160243
0.169567
0.176138
0.179506
0.179247
0.175009
0.166689
0.154264
0.135719
0.109651
-0.0960991
-0.120199
-0.13706
-0.148185
-0.155694
-0.159811
-0.160775
-0.158983
-0.154821
-0.148628
-0.140701
-0.13129
-0.120596
-0.108778
-0.0959564
-0.0822228
-0.0676456
-0.0522783
-0.0361668
-0.0193573
-0.00190347
0.0161264
0.0346413
0.0535203
0.0726053
0.0916929
0.110529
0.128802
0.146141
0.162116
0.176241
0.187987
0.196797
0.202113
0.203394
0.20017
0.192246
0.179529
0.159744
0.131351
-0.124336
-0.150293
-0.168098
-0.17938
-0.186498
-0.189765
-0.189517
-0.186256
-0.180459
-0.172543
-0.162862
-0.151706
-0.139302
-0.125819
-0.111381
-0.0960718
-0.079946
-0.063039
-0.0453752
-0.0269766
-0.00787114
0.0118984
0.0322662
0.0531344
0.0743637
0.0957642
0.117086
0.138012
0.158148
0.177026
0.194096
0.208744
0.220304
0.228085
0.231396
0.229612
0.222409
0.209584
0.188547
0.157591
-0.157094
-0.185173
-0.203956
-0.215226
-0.221652
-0.223678
-0.221775
-0.216586
-0.20871
-0.198658
-0.186853
-0.17363
-0.159243
-0.14387
-0.127633
-0.110601
-0.0928119
-0.0742749
-0.0549861
-0.0349367
-0.014122
0.00744862
0.0297427
0.0526939
0.0761916
0.100069
0.124092
0.147944
0.171221
0.193417
0.213923
0.232032
0.246952
0.257834
0.263797
0.264011
0.257969
0.245303
0.223027
0.189229
-0.195099
-0.225647
-0.245427
-0.256431
-0.261734
-0.261978
-0.257827
-0.250115
-0.239597
-0.226899
-0.212526
-0.196863
-0.180185
-0.162677
-0.144449
-0.125552
-0.105994
-0.0857519
-0.0647864
-0.043049
-0.0204947
0.00290925
0.0271725
0.0522705
0.0781324
0.104627
0.131548
0.158596
0.185366
0.211327
0.235817
0.258032
0.277041
0.291807
0.301215
0.304161
0.299885
0.287768
0.264307
0.22733
-0.239295
-0.272769
-0.293534
-0.303873
-0.307427
-0.305138
-0.297944
-0.286935
-0.273064
-0.2571
-0.239634
-0.2211
-0.201793
-0.181889
-0.161479
-0.140582
-0.119167
-0.0971699
-0.0745038
-0.0510732
-0.0267836
-0.0015513
0.0246855
0.0519552
0.0802393
0.109457
0.139445
0.169942
0.200558
0.230757
0.259833
0.286895
0.310863
0.330482
0.344347
0.351005
0.34933
0.338338
0.31382
0.27325
-0.290953
-0.327949
-0.349611
-0.358654
-0.359542
-0.353668
-0.342363
-0.327054
-0.308944
-0.288962
-0.267793
-0.24591
-0.223608
-0.201046
-0.178273
-0.155263
-0.131933
-0.108163
-0.0838102
-0.0587217
-0.0327444
-0.00573413
0.0224332
0.0518505
0.0825657
0.114565
0.14775
0.181916
0.216718
0.251641
0.285959
0.318711
0.348668
0.374338
0.393966
0.405645
0.407748
0.398735
0.373416
0.328741
-0.351828
-0.393122
-0.415428
-0.422167
-0.419029
-0.408094
-0.391243
-0.370346
-0.346903
-0.322016
-0.296451
-0.2707
-0.245036
-0.219566
-0.194279
-0.169082
-0.143821
-0.118307
-0.0923304
-0.0656701
-0.0381051
-0.00942197
0.0205758
0.0520574
0.0851516
0.11993
0.156382
0.194389
0.233686
0.273815
0.314073
0.353458
0.39062
0.423816
0.45089
0.469361
0.476914
0.471185
0.44555
0.396137
-0.424443
-0.471006
-0.493368
-0.496167
-0.486973
-0.4689
-0.444592
-0.41647
-0.386371
-0.355558
-0.324846
-0.2947
-0.265325
-0.236742
-0.208845
-0.181446
-0.154301
-0.127136
-0.0996601
-0.071576
-0.0425858
-0.0123988
0.0192626
0.0526549
0.088002
0.125479
0.165192
0.20714
0.25118
0.296966
0.343875
0.390932
0.43671
0.479242
0.515933
0.543605
0.559016
0.558587
0.53355
0.478646
-0.512563
-0.565515
-0.586667
-0.582843
-0.564547
-0.536428
-0.502138
-0.464755
-0.426447
-0.388586
-0.351958
-0.316927
-0.283565
-0.251748
-0.221234
-0.191706
-0.162809
-0.134166
-0.105393
-0.0761061
-0.0459257
-0.0144772
0.0186047
0.0536726
0.0910581
0.13106
0.173924
0.219809
0.268745
0.320564
0.374814
0.430638
0.486635
0.540692
0.589789
0.629944
0.656717
0.664767
0.642053
0.580866
-0.622058
-0.682419
-0.699729
-0.684846
-0.652879
-0.610674
-0.563136
-0.514033
-0.465778
-0.419717
-0.376469
-0.336179
-0.298686
-0.263654
-0.230649
-0.19919
-0.168783
-0.138934
-0.109156
-0.0789725
-0.0479182
-0.0155321
0.0186421
0.0550582
0.0941653
0.136401
0.182177
0.231853
0.28569
0.343785
0.405967
0.471645
0.539612
0.607778
0.672817
0.729918
0.773182
0.794794
0.77769
0.709711
-0.762542
-0.830394
-0.83849
-0.805206
-0.75276
-0.690953
-0.626066
-0.562417
-0.502413
-0.447107
-0.396731
-0.35103
-0.309489
-0.271467
-0.236279
-0.203245
-0.171708
-0.141042
-0.110654
-0.0799735
-0.0484495
-0.0155372
0.0193092
0.0566447
0.0970397
0.141081
0.18937
0.242499
0.301029
0.365416
0.435911
0.512394
0.594115
0.679318
0.764671
0.844718
0.911972
0.955345
0.95018
0.876166
-0.950702
-1.0227
-1.01068
-0.9469
-0.864001
-0.775294
-0.688172
-0.606996
-0.533627
-0.468378
-0.410752
-0.359867
-0.314693
-0.274188
-0.237362
-0.2033
-0.171169
-0.140207
-0.109715
-0.0790347
-0.0475358
-0.0145984
0.0204045
0.0581222
0.0992422
0.144503
0.194704
0.250706
0.313419
0.383761
0.462574
0.55046
0.647506
0.7528
0.863629
0.974473
1.07656
1.15494
1.17406
1.09885
-1.21705
-1.27965
-1.22543
-1.11148
-0.984021
-0.859328
-0.744717
-0.643396
-0.555712
-0.480542
-0.416212
-0.360932
-0.312999
-0.270883
-0.233245
-0.198923
-0.166907
-0.136307
-0.106329
-0.0762417
-0.0453514
-0.0129781
0.0215697
0.0590201
0.100163
0.145876
0.197153
0.255133
0.321112
0.396555
0.483058
0.58224
0.695508
0.823554
0.965361
1.1167
1.26882
1.40344
1.47111
1.41112
-1.61758
-1.63088
-1.49145
-1.29666
-1.10585
-0.934971
-0.788284
-0.665522
-0.563962
-0.48012
-0.410621
-0.352496
-0.303245
-0.260808
-0.223492
-0.189902
-0.158876
-0.129422
-0.100676
-0.0718583
-0.0422356
-0.0110924
0.0223033
0.0587315
0.0990564
0.144267
0.195526
0.254223
0.322043
0.401035
0.493667
0.602854
0.731864
0.883976
1.06155
1.26421
1.48648
1.71004
1.87235
1.87263
-2.25435
-2.11581
-1.81354
-1.49439
-1.21739
-0.990485
-0.809392
-0.666434
-0.553609
-0.463998
-0.392052
-0.333456
-0.284886
-0.243786
-0.208167
-0.17646
-0.147401
-0.119943
-0.0931909
-0.0663489
-0.0386781
-0.00945764
0.0220522
0.0566485
0.095229
0.138846
0.188772
0.246591
0.314311
0.394519
0.490579
0.606865
0.748994
0.923946
1.13977
1.4042
1.72094
2.07938
2.41781
2.589
-3.35609
-2.78291
-2.17269
-1.67587
-1.29257
-1.00572
-0.794137
-0.637264
-0.519321
-0.429166
-0.358965
-0.303174
-0.257828
-0.220046
-0.187687
-0.159117
-0.133057
-0.108468
-0.0844773
-0.0603176
-0.0352807
-0.00867707
0.0202027
0.0521288
0.0879794
0.128801
0.175891
0.230904
0.296024
0.374194
0.469474
0.587566
0.736545
0.927907
1.17798
1.50836
1.94105
2.49111
3.15771
3.79464
-5.52255
-3.65927
-2.43081
-1.71432
-1.24185
-0.921848
-0.704895
-0.553991
-0.445509
-0.365221
-0.304196
-0.256576
-0.218405
-0.186918
-0.160122
-0.136525
-0.114972
-0.094538
-0.0744476
-0.0540231
-0.0326399
-0.00969014
0.0154522
0.0434686
0.0751403
0.111405
0.153435
0.202754
0.261405
0.33223
0.419311
0.528714
0.669723
0.857123
1.11547
1.48399
2.01614
2.80528
4.12185
6.09342
-9.21
-4.51829
-2.30599
-1.42121
-0.958891
-0.682848
-0.512212
-0.400556
-0.322899
-0.266406
-0.223886
-0.19091
-0.164567
-0.14285
-0.124303
-0.107828
-0.0925648
-0.0778166
-0.0629932
-0.0475736
-0.0310753
-0.0130273
0.00705511
0.0296976
0.0554987
0.0851714
0.1196
0.159922
0.207659
0.26492
0.334766
0.421862
0.533755
0.683729
0.897415
1.22408
1.75394
2.73303
5.06018
9.87239
)
;

boundaryField
{
    movingWall
    {
        type            zeroGradient;
    }
    fixedWalls
    {
        type            zeroGradient;
    }
    frontAndBack
    {
        type            empty;
    }
}


// ************************************************************************* //
