/*--------------------------------*- C++ -*----------------------------------*\
  =========                 |
  \\      /  F ield         | OpenFOAM: The Open Source CFD Toolbox
   \\    /   O peration     | Website:  https://openfoam.org
    \\  /    A nd           | Version:  7
     \\/     M anipulation  |
\*---------------------------------------------------------------------------*/
FoamFile
{
    version     2.0;
    format      ascii;
    class       surfaceScalarField;
    location    "0.16";
    object      phi;
}
// * * * * * * * * * * * * * * * * * * * * * * * * * * * * * * * * * * * * * //

dimensions      [0 3 -1 0 0 0 0];

internalField   nonuniform List<scalar> 
3120
(
2.53828e-09
-2.53825e-09
4.09215e-09
-1.55401e-09
2.24659e-09
1.84567e-09
-3.55755e-09
5.80412e-09
-1.31317e-08
9.57424e-09
-2.59683e-08
1.28366e-08
-4.14285e-08
1.54602e-08
-5.88369e-08
1.74083e-08
-7.75263e-08
1.86895e-08
-9.68609e-08
1.93346e-08
-1.16247e-07
1.9386e-08
-1.35139e-07
1.88921e-08
-1.53043e-07
1.79038e-08
-1.69517e-07
1.64739e-08
-1.84172e-07
1.46555e-08
-1.96675e-07
1.25025e-08
-2.06743e-07
1.00689e-08
-2.14153e-07
7.4097e-09
-2.18734e-07
4.58115e-09
-2.20375e-07
1.64101e-09
-2.19024e-07
-1.35094e-09
-2.14692e-07
-4.33269e-09
-2.07452e-07
-7.23986e-09
-1.97446e-07
-1.00059e-08
-1.84883e-07
-1.25626e-08
-1.70043e-07
-1.48404e-08
-1.53273e-07
-1.67698e-08
-1.34991e-07
-1.82825e-08
-1.15678e-07
-1.93129e-08
-9.58776e-08
-1.98001e-08
-7.61877e-08
-1.96899e-08
-5.725e-08
-1.89377e-08
-3.97385e-08
-1.75116e-08
-2.43401e-08
-1.53984e-08
-1.17264e-08
-1.26137e-08
-2.50267e-09
-9.22367e-09
2.88782e-09
-5.39046e-09
4.35083e-09
-1.46297e-09
2.55797e-09
1.79285e-09
2.55802e-09
1.61485e-09
-4.15295e-09
-1.17471e-09
1.23547e-09
-1.17111e-08
1.23821e-08
-3.10522e-08
2.51452e-08
-5.89964e-08
3.75184e-08
-9.46013e-08
4.84414e-08
-1.36519e-07
5.73783e-08
-1.83213e-07
6.41019e-08
-2.33084e-07
6.85608e-08
-2.84554e-07
7.08043e-08
-3.3611e-07
7.09418e-08
-3.86336e-07
6.91184e-08
-4.33933e-07
6.5501e-08
-4.77729e-07
6.02696e-08
-5.16686e-07
5.36126e-08
-5.49908e-07
4.57242e-08
-5.76642e-07
3.68034e-08
-5.96287e-07
2.70539e-08
-6.0839e-07
1.66851e-08
-6.12662e-07
5.91238e-09
-6.08971e-07
-5.04163e-09
-5.97357e-07
-1.59469e-08
-5.78031e-07
-2.6566e-08
-5.51382e-07
-3.6655e-08
-5.17979e-07
-4.59656e-08
-4.78571e-07
-5.42474e-08
-4.34089e-07
-6.12525e-08
-3.85631e-07
-6.67399e-08
-3.34462e-07
-7.04823e-08
-2.81988e-07
-7.2274e-08
-2.29738e-07
-7.19397e-08
-1.79329e-07
-6.93468e-08
-1.3242e-07
-6.44212e-08
-9.06476e-08
-5.71704e-08
-5.5539e-08
-4.77223e-08
-2.83694e-08
-3.63931e-08
-9.94941e-09
-2.38105e-08
-2.98479e-10
-1.1114e-08
1.85044e-09
-3.56034e-10
4.40842e-09
-1.66679e-09
-2.48619e-09
-1.21062e-08
1.16749e-08
-3.40575e-08
3.43333e-08
-6.83811e-08
5.94688e-08
-1.14664e-07
8.38013e-08
-1.71622e-07
1.05399e-07
-2.37424e-07
1.2318e-07
-3.09935e-07
1.36613e-07
-3.8689e-07
1.45516e-07
-4.66007e-07
1.49921e-07
-5.45068e-07
1.50003e-07
-6.21974e-07
1.46025e-07
-6.94781e-07
1.38308e-07
-7.61724e-07
1.27213e-07
-8.21234e-07
1.13123e-07
-8.71952e-07
9.64426e-08
-9.12738e-07
7.75887e-08
-9.42676e-07
5.69918e-08
-9.61086e-07
3.50954e-08
-9.6753e-07
1.23568e-08
-9.6182e-07
-1.07522e-08
-9.44022e-07
-3.37449e-08
-9.14467e-07
-5.6121e-08
-8.73753e-07
-7.73684e-08
-8.22751e-07
-9.6968e-08
-7.62599e-07
-1.144e-07
-6.94699e-07
-1.29152e-07
-6.20706e-07
-1.40733e-07
-5.42506e-07
-1.48682e-07
-4.6219e-07
-1.5259e-07
-3.82007e-07
-1.52122e-07
-3.04316e-07
-1.47038e-07
-2.31505e-07
-1.37232e-07
-1.65896e-07
-1.22779e-07
-1.09613e-07
-1.04006e-07
-6.43951e-08
-8.16106e-08
-3.13599e-08
-5.68457e-08
-1.06852e-08
-3.17886e-08
-1.23958e-09
-9.80171e-09
3.16882e-09
-5.56242e-09
3.07623e-09
-2.49497e-08
3.10622e-08
-5.96182e-08
6.90018e-08
-1.09743e-07
1.09594e-07
-1.74436e-07
1.48494e-07
-2.5199e-07
1.82954e-07
-3.40138e-07
2.11328e-07
-4.36264e-07
2.32739e-07
-5.37582e-07
2.46834e-07
-6.41267e-07
2.53606e-07
-7.44552e-07
2.53287e-07
-8.44798e-07
2.46271e-07
-9.3955e-07
2.33059e-07
-1.02656e-06
2.14228e-07
-1.10385e-06
1.90405e-07
-1.16966e-06
1.62256e-07
-1.22255e-06
1.30476e-07
-1.26134e-06
9.5785e-08
-1.28517e-06
5.89268e-08
-1.29349e-06
2.06697e-08
-1.28604e-06
-1.81943e-08
-1.26294e-06
-5.68498e-08
-1.2246e-06
-9.44599e-08
-1.1718e-06
-1.30171e-07
-1.10564e-06
-1.63121e-07
-1.02759e-06
-1.9245e-07
-9.39432e-07
-2.17315e-07
-8.43255e-07
-2.36909e-07
-7.41448e-07
-2.50489e-07
-6.36637e-07
-2.57401e-07
-5.31643e-07
-2.57117e-07
-4.29399e-07
-2.49282e-07
-3.32866e-07
-2.33766e-07
-2.44903e-07
-2.10742e-07
-1.68121e-07
-1.80788e-07
-1.04696e-07
-1.45036e-07
-5.6144e-08
-1.05398e-07
-2.30792e-08
-6.48535e-08
-4.98203e-09
-2.78988e-08
-1.8132e-09
-9.45661e-09
1.25328e-08
-3.81276e-08
5.97333e-08
-8.59732e-08
1.16847e-07
-1.52209e-07
1.7583e-07
-2.35267e-07
2.31552e-07
-3.32913e-07
2.806e-07
-4.42411e-07
3.20826e-07
-5.60698e-07
3.51027e-07
-6.84542e-07
3.70678e-07
-8.10668e-07
3.79732e-07
-9.35865e-07
3.78484e-07
-1.05706e-06
3.67468e-07
-1.17139e-06
3.47388e-07
-1.27623e-06
3.19066e-07
-1.36923e-06
2.83412e-07
-1.44837e-06
2.41394e-07
-1.51193e-06
1.94032e-07
-1.55853e-06
1.42386e-07
-1.58715e-06
8.75533e-08
-1.59715e-06
3.06686e-08
-1.58825e-06
-2.70997e-08
-1.56055e-06
-8.45491e-08
-1.51456e-06
-1.40448e-07
-1.45119e-06
-1.93543e-07
-1.37174e-06
-2.4257e-07
-1.27792e-06
-2.86273e-07
-1.17181e-06
-3.23423e-07
-1.05587e-06
-3.52852e-07
-9.32869e-07
-3.73486e-07
-8.0588e-07
-3.8439e-07
-6.78176e-07
-3.84821e-07
-5.53167e-07
-3.7429e-07
-4.3429e-07
-3.52643e-07
-3.24876e-07
-3.20156e-07
-2.28004e-07
-2.7766e-07
-1.4632e-07
-2.2672e-07
-8.18592e-08
-1.69858e-07
-3.58777e-08
-1.10835e-07
-8.7464e-09
-5.503e-08
-1.05596e-08
-1.31453e-08
2.56781e-08
-5.09632e-08
9.75513e-08
-1.11956e-07
1.7784e-07
-1.94267e-07
2.58141e-07
-2.95525e-07
3.3281e-07
-4.12868e-07
3.97943e-07
-5.43041e-07
4.50999e-07
-6.82525e-07
4.9051e-07
-8.27663e-07
5.15816e-07
-9.74783e-07
5.26852e-07
-1.12029e-06
5.23993e-07
-1.26076e-06
5.07938e-07
-1.39299e-06
4.79615e-07
-1.51404e-06
4.4012e-07
-1.6213e-06
3.90673e-07
-1.71249e-06
3.32584e-07
-1.7857e-06
2.67233e-07
-1.83937e-06
1.96061e-07
-1.87238e-06
1.20561e-07
-1.88398e-06
4.22738e-08
-1.87388e-06
-3.72094e-08
-1.84217e-06
-1.16255e-07
-1.78943e-06
-1.9319e-07
-1.71666e-06
-2.66315e-07
-1.62531e-06
-3.33918e-07
-1.51728e-06
-3.943e-07
-1.3949e-06
-4.45802e-07
-1.26091e-06
-4.86849e-07
-1.11839e-06
-5.15999e-07
-9.70781e-07
-5.32e-07
-8.21741e-07
-5.33861e-07
-6.75094e-07
-5.20937e-07
-5.34713e-07
-4.93024e-07
-4.04389e-07
-4.5048e-07
-2.87684e-07
-3.94365e-07
-1.87784e-07
-3.2662e-07
-1.07346e-07
-2.50296e-07
-4.83999e-08
-1.69781e-07
-1.23221e-08
-9.11077e-08
-2.28816e-08
-1.65887e-08
4.22668e-08
-6.32315e-08
1.44194e-07
-1.37105e-07
2.51714e-07
-2.3527e-07
3.56305e-07
-3.54486e-07
4.52027e-07
-4.91194e-07
5.34651e-07
-6.41567e-07
6.01371e-07
-8.01599e-07
6.50542e-07
-9.67212e-07
6.81428e-07
-1.13435e-06
6.93993e-07
-1.29909e-06
6.8873e-07
-1.45768e-06
6.66529e-07
-1.60664e-06
6.28573e-07
-1.74278e-06
5.76264e-07
-1.86327e-06
5.1116e-07
-1.96563e-06
4.3494e-07
-2.04777e-06
3.49379e-07
-2.10804e-06
2.56327e-07
-2.14518e-06
1.57704e-07
-2.1584e-06
5.54923e-08
-2.14735e-06
-4.82638e-08
-2.11213e-06
-1.51465e-07
-2.05336e-06
-2.51963e-07
-1.9721e-06
-3.47575e-07
-1.86992e-06
-4.36105e-07
-1.74884e-06
-5.1537e-07
-1.6114e-06
-5.83244e-07
-1.46055e-06
-6.37704e-07
-1.29965e-06
-6.76898e-07
-1.13243e-06
-6.99216e-07
-9.62913e-07
-7.03382e-07
-7.95297e-07
-6.88552e-07
-6.33886e-07
-6.54436e-07
-4.82941e-07
-6.01425e-07
-3.46555e-07
-5.3075e-07
-2.28514e-07
-4.44662e-07
-1.32183e-07
-3.46628e-07
-6.04348e-08
-2.41528e-07
-1.56708e-08
-1.35872e-07
-3.85524e-08
-1.98162e-08
6.20829e-08
-7.49375e-08
1.99315e-07
-1.61359e-07
3.38135e-07
-2.7509e-07
4.70037e-07
-4.12003e-07
5.88939e-07
-5.67795e-07
6.90443e-07
-7.38022e-07
7.71598e-07
-9.18163e-07
8.30683e-07
-1.1037e-06
8.66967e-07
-1.29021e-06
8.80505e-07
-1.47344e-06
8.71957e-07
-1.64936e-06
8.4245e-07
-1.81425e-06
7.93459e-07
-1.9647e-06
7.26719e-07
-2.0977e-06
6.4416e-07
-2.21062e-06
5.47858e-07
-2.30125e-06
4.40005e-07
-2.3678e-06
3.22885e-07
-2.40897e-06
1.98869e-07
-2.42388e-06
7.04029e-08
-2.41215e-06
-5.99928e-08
-2.37388e-06
-1.89729e-07
-2.30969e-06
-3.16158e-07
-2.22068e-06
-4.36586e-07
-2.10848e-06
-5.48301e-07
-1.97525e-06
-6.48605e-07
-1.82363e-06
-7.34865e-07
-1.65676e-06
-8.04572e-07
-1.47824e-06
-8.55419e-07
-1.29206e-06
-8.85393e-07
-1.10257e-06
-8.92878e-07
-9.14339e-07
-8.7678e-07
-7.32114e-07
-8.3666e-07
-5.60657e-07
-7.72882e-07
-4.04635e-07
-6.86772e-07
-2.68497e-07
-5.808e-07
-1.56373e-07
-4.58752e-07
-7.20176e-08
-3.25884e-07
-1.88293e-08
-1.8906e-07
-5.73818e-08
-2.28802e-08
8.49631e-08
-8.6187e-08
2.62622e-07
-1.84852e-07
4.368e-07
-3.13882e-07
5.99067e-07
-4.68257e-07
7.43314e-07
-6.42905e-07
8.65092e-07
-8.32734e-07
9.61427e-07
-1.03268e-06
1.03063e-06
-1.23777e-06
1.07206e-06
-1.44321e-06
1.08594e-06
-1.64441e-06
1.07317e-06
-1.83711e-06
1.03515e-06
-2.01736e-06
9.73704e-07
-2.18158e-06
8.90935e-07
-2.32659e-06
7.89176e-07
-2.44966e-06
6.70923e-07
-2.54846e-06
5.38807e-07
-2.62114e-06
3.95568e-07
-2.66631e-06
2.44038e-07
-2.68305e-06
8.71428e-08
-2.67094e-06
-7.21072e-08
-2.63005e-06
-2.30619e-07
-2.56098e-06
-3.85228e-07
-2.46485e-06
-5.32709e-07
-2.34334e-06
-6.69812e-07
-2.19865e-06
-7.93294e-07
-2.03354e-06
-8.99979e-07
-1.85128e-06
-9.8683e-07
-1.65566e-06
-1.05104e-06
-1.45093e-06
-1.09012e-06
-1.24174e-06
-1.10207e-06
-1.03305e-06
-1.08547e-06
-8.30043e-07
-1.03966e-06
-6.38032e-07
-9.64892e-07
-4.62306e-07
-8.62499e-07
-3.08028e-07
-7.35077e-07
-1.80141e-07
-5.86639e-07
-8.3297e-08
-4.22728e-07
-2.18622e-08
-2.50495e-07
-7.9244e-08
-2.58366e-08
1.108e-07
-9.71218e-08
3.33907e-07
-2.07806e-07
5.47484e-07
-3.51931e-07
7.43192e-07
-5.2359e-07
9.14972e-07
-7.16928e-07
1.05843e-06
-9.26178e-07
1.17068e-06
-1.14571e-06
1.25016e-06
-1.37008e-06
1.29643e-06
-1.59411e-06
1.30997e-06
-1.81292e-06
1.29197e-06
-2.02197e-06
1.24421e-06
-2.21715e-06
1.16888e-06
-2.39471e-06
1.0685e-06
-2.55137e-06
9.45834e-07
-2.68428e-06
8.03835e-07
-2.79106e-06
6.45586e-07
-2.86978e-06
4.74291e-07
-2.919e-06
2.93258e-07
-2.93775e-06
1.05895e-07
-2.92557e-06
-8.42918e-08
-2.88249e-06
-2.73701e-07
-2.80907e-06
-4.5864e-07
-2.70644e-06
-6.35345e-07
-2.57625e-06
-8.00005e-07
-2.42073e-06
-9.48807e-07
-2.24272e-06
-1.078e-06
-2.04558e-06
-1.18396e-06
-1.83328e-06
-1.26334e-06
-1.61027e-06
-1.31312e-06
-1.38152e-06
-1.33082e-06
-1.15237e-06
-1.31462e-06
-9.28497e-07
-1.26354e-06
-7.15765e-07
-1.17762e-06
-5.20143e-07
-1.05812e-06
-3.47561e-07
-9.07659e-07
-2.03812e-07
-7.30388e-07
-9.44672e-08
-5.32072e-07
-2.48405e-08
-3.20121e-07
-1.04084e-07
-2.87376e-08
1.39537e-07
-1.07889e-07
4.13058e-07
-2.30467e-07
6.70063e-07
-3.89573e-07
9.02298e-07
-5.78411e-07
1.10381e-06
-7.90331e-07
1.27035e-06
-1.01887e-06
1.39922e-06
-1.25781e-06
1.4891e-06
-1.50124e-06
1.53985e-06
-1.74357e-06
1.55231e-06
-1.97964e-06
1.52804e-06
-2.20469e-06
1.46926e-06
-2.4144e-06
1.37859e-06
-2.60493e-06
1.25903e-06
-2.7729e-06
1.1138e-06
-2.9154e-06
9.46335e-07
-3.02999e-06
7.60177e-07
-3.11471e-06
5.59008e-07
-3.16807e-06
3.46612e-07
-3.18905e-06
1.26877e-07
-3.17714e-06
-9.62007e-08
-3.13233e-06
-3.18512e-07
-3.05513e-06
-5.3584e-07
-2.9466e-06
-7.43873e-07
-2.80838e-06
-9.38229e-07
-2.64268e-06
-1.1145e-06
-2.45235e-06
-1.26833e-06
-2.24083e-06
-1.39548e-06
-2.01222e-06
-1.49196e-06
-1.77118e-06
-1.55416e-06
-1.52296e-06
-1.57905e-06
-1.2733e-06
-1.56428e-06
-1.02836e-06
-1.50847e-06
-7.9464e-07
-1.41135e-06
-5.78808e-07
-1.27395e-06
-3.87614e-07
-1.09885e-06
-2.2775e-07
-8.90253e-07
-1.05734e-07
-6.54088e-07
-2.78336e-08
-3.98022e-07
-1.31918e-07
-3.16293e-08
1.71167e-07
-1.18626e-07
5.00055e-07
-2.53078e-07
8.04515e-07
-4.27143e-07
1.07636e-06
-6.33132e-07
1.3098e-06
-8.63578e-07
1.5008e-06
-1.11131e-06
1.64694e-06
-1.36949e-06
1.74729e-06
-1.63174e-06
1.8021e-06
-1.89208e-06
1.81264e-06
-2.14504e-06
1.78101e-06
-2.38567e-06
1.70988e-06
-2.6095e-06
1.60242e-06
-2.81259e-06
1.46212e-06
-2.99152e-06
1.29273e-06
-3.14332e-06
1.09814e-06
-3.26554e-06
8.82402e-07
-3.3562e-06
6.49668e-07
-3.41378e-06
4.04189e-07
-3.43723e-06
1.50323e-07
-3.42597e-06
-1.07455e-07
-3.37994e-06
-3.64544e-07
-3.29957e-06
-6.16212e-07
-3.18584e-06
-8.57603e-07
-3.0403e-06
-1.08376e-06
-2.86514e-06
-1.28967e-06
-2.66316e-06
-1.47031e-06
-2.43784e-06
-1.62079e-06
-2.19336e-06
-1.73644e-06
-1.93456e-06
-1.81296e-06
-1.66697e-06
-1.84664e-06
-1.39673e-06
-1.83453e-06
-1.13051e-06
-1.77469e-06
-8.75448e-07
-1.66641e-06
-6.38977e-07
-1.51042e-06
-4.28722e-07
-1.30911e-06
-2.52324e-07
-1.06665e-06
-1.17301e-07
-7.89112e-07
-3.09066e-08
-4.84416e-07
-1.62825e-07
-3.4552e-08
2.05719e-07
-1.29459e-07
5.94963e-07
-2.75863e-07
9.50918e-07
-4.64959e-07
1.26546e-06
-6.88135e-07
1.53298e-06
-9.37087e-07
1.74975e-06
-1.2039e-06
1.91376e-06
-1.48115e-06
2.02453e-06
-1.76192e-06
2.08286e-06
-2.03987e-06
2.0906e-06
-2.30927e-06
2.05041e-06
-2.56496e-06
1.96557e-06
-2.80238e-06
1.83984e-06
-3.01752e-06
1.67726e-06
-3.20693e-06
1.48213e-06
-3.36766e-06
1.25887e-06
-3.49727e-06
1.01201e-06
-3.59377e-06
7.46166e-07
-3.65563e-06
4.66052e-07
-3.68178e-06
1.76472e-07
-3.67159e-06
-1.17644e-07
-3.62491e-06
-4.11227e-07
-3.54207e-06
-6.99052e-07
-3.42394e-06
-9.75733e-07
-3.27196e-06
-1.23574e-06
-3.0882e-06
-1.47343e-06
-2.87539e-06
-1.68312e-06
-2.637e-06
-1.85919e-06
-2.37723e-06
-1.99621e-06
-2.10108e-06
-2.08911e-06
-1.81432e-06
-2.13339e-06
-1.52347e-06
-2.12537e-06
-1.23574e-06
-2.06242e-06
-9.58937e-07
-1.94322e-06
-7.01306e-07
-1.76806e-06
-4.71402e-07
-1.53901e-06
-2.77892e-07
-1.26016e-06
-1.2936e-07
-9.37644e-07
-3.41199e-08
-5.79656e-07
-1.96944e-07
-3.75409e-08
2.4326e-07
-1.40501e-07
6.97923e-07
-2.99026e-07
1.10944e-06
-5.03304e-07
1.46974e-06
-7.4376e-07
1.77343e-06
-1.01121e-06
2.0172e-06
-1.29699e-06
2.19954e-06
-1.59303e-06
2.32057e-06
-1.89192e-06
2.38176e-06
-2.18697e-06
2.38565e-06
-2.47217e-06
2.33561e-06
-2.74223e-06
2.23563e-06
-2.99251e-06
2.09011e-06
-3.21899e-06
1.90375e-06
-3.41824e-06
1.68139e-06
-3.58738e-06
1.428e-06
-3.72399e-06
1.14862e-06
-3.82612e-06
8.48305e-07
-3.89228e-06
5.32207e-07
-3.92136e-06
2.05548e-07
-3.91267e-06
-1.26328e-07
-3.86598e-06
-4.5792e-07
-3.78149e-06
-7.8354e-07
-3.65992e-06
-1.0973e-06
-3.50255e-06
-1.39311e-06
-3.31128e-06
-1.6647e-06
-3.08871e-06
-1.90569e-06
-2.8382e-06
-2.1097e-06
-2.56396e-06
-2.27045e-06
-2.27106e-06
-2.38201e-06
-1.96549e-06
-2.43896e-06
-1.65413e-06
-2.43673e-06
-1.34473e-06
-2.37182e-06
-1.04578e-06
-2.24217e-06
-7.66398e-07
-2.04744e-06
-5.16143e-07
-1.78927e-06
-3.04792e-07
-1.47151e-06
-1.42095e-07
-1.10034e-06
-3.75297e-08
-6.84221e-07
-2.34474e-07
-4.06278e-08
2.83887e-07
-1.51855e-07
8.0915e-07
-3.22754e-07
1.28034e-06
-5.42435e-07
1.68942e-06
-8.00299e-07
2.0313e-06
-1.08624e-06
2.30314e-06
-1.39079e-06
2.50409e-06
-1.70524e-06
2.63502e-06
-2.02169e-06
2.69821e-06
-2.33309e-06
2.69705e-06
-2.63322e-06
2.63575e-06
-2.91669e-06
2.5191e-06
-3.17883e-06
2.35225e-06
-3.41568e-06
2.1406e-06
-3.62389e-06
1.8896e-06
-3.80067e-06
1.60478e-06
-3.94372e-06
1.29166e-06
-4.05115e-06
9.55743e-07
-4.12151e-06
6.02568e-07
-4.1537e-06
2.37733e-07
-4.14698e-06
-1.3305e-07
-4.101e-06
-5.03899e-07
-4.01582e-06
-8.68718e-07
-3.89197e-06
-1.22115e-06
-3.7305e-06
-1.55458e-06
-3.53309e-06
-1.86211e-06
-3.30212e-06
-2.13666e-06
-3.04079e-06
-2.37103e-06
-2.7532e-06
-2.55804e-06
-2.44445e-06
-2.69076e-06
-2.12069e-06
-2.76273e-06
-1.78912e-06
-2.7683e-06
-1.458e-06
-2.70294e-06
-1.13655e-06
-2.56362e-06
-8.34798e-07
-2.34919e-06
-5.63397e-07
-2.06067e-06
-3.33342e-07
-1.70157e-06
-1.5568e-07
-1.278e-06
-4.11896e-08
-7.98712e-07
-2.75664e-07
-4.38434e-08
3.27731e-07
-1.63619e-07
9.28926e-07
-3.47223e-07
1.46395e-06
-5.82587e-07
1.92478e-06
-8.58004e-07
2.30672e-06
-1.16238e-06
2.60751e-06
-1.48541e-06
2.82712e-06
-1.81771e-06
2.96732e-06
-2.15091e-06
3.03141e-06
-2.47764e-06
3.02378e-06
-2.79151e-06
2.94962e-06
-3.08708e-06
2.81467e-06
-3.35974e-06
2.62491e-06
-3.60563e-06
2.38649e-06
-3.82158e-06
2.10555e-06
-4.00496e-06
1.78816e-06
-4.15362e-06
1.44032e-06
-4.26581e-06
1.06794e-06
-4.34015e-06
6.76909e-07
-4.37557e-06
2.73144e-07
-4.37127e-06
-1.37344e-07
-4.32681e-06
-5.48363e-07
-4.24206e-06
-9.5347e-07
-4.1173e-06
-1.3459e-06
-3.95333e-06
-1.71855e-06
-3.75149e-06
-2.06394e-06
-3.51388e-06
-2.37427e-06
-3.24344e-06
-2.64148e-06
-2.94405e-06
-2.85742e-06
-2.62076e-06
-3.01405e-06
-2.27976e-06
-3.10372e-06
-1.92856e-06
-3.11951e-06
-1.57588e-06
-3.05561e-06
-1.23169e-06
-2.90782e-06
-9.06975e-07
-2.6739e-06
-6.13578e-07
-2.35406e-06
-3.63844e-07
-1.9513e-06
-1.70281e-07
-1.47157e-06
-4.51516e-08
-9.23842e-07
-3.20815e-07
-4.72191e-08
3.7495e-07
-1.75894e-07
1.0576e-06
-3.72609e-07
1.66066e-06
-6.23987e-07
2.17616e-06
-9.17101e-07
2.59983e-06
-1.23978e-06
2.93019e-06
-1.58083e-06
3.16817e-06
-1.93021e-06
3.31669e-06
-2.27904e-06
3.38025e-06
-2.61971e-06
3.36444e-06
-2.9457e-06
3.27562e-06
-3.25162e-06
3.12058e-06
-3.53299e-06
2.90628e-06
-3.78617e-06
2.63968e-06
-4.00822e-06
2.3276e-06
-4.19677e-06
1.97671e-06
-4.3499e-06
1.59345e-06
-4.46606e-06
1.18409e-06
-4.54398e-06
7.54826e-07
-4.58263e-06
3.11799e-07
-4.58122e-06
-1.38758e-07
-4.53915e-06
-5.90429e-07
-4.45611e-06
-1.03651e-06
-4.3321e-06
-1.46991e-06
-4.16755e-06
-1.88311e-06
-3.96343e-06
-2.26806e-06
-3.72142e-06
-2.61628e-06
-3.44407e-06
-2.91883e-06
-3.13496e-06
-3.16652e-06
-2.79893e-06
-3.35009e-06
-2.44214e-06
-3.46051e-06
-2.07226e-06
-3.48938e-06
-1.6985e-06
-3.42938e-06
-1.33151e-06
-3.2748e-06
-9.83327e-07
-3.02208e-06
-6.67067e-07
-2.67032e-06
-3.9659e-07
-2.22178e-06
-1.86065e-07
-1.68209e-06
-4.94683e-08
-1.06044e-06
-3.70284e-07
-5.07904e-08
4.2574e-07
-1.88794e-07
1.1956e-06
-3.99106e-07
1.87097e-06
-6.66873e-07
2.44393e-06
-9.77804e-07
2.91076e-06
-1.31854e-06
3.27093e-06
-1.67696e-06
3.52659e-06
-2.0423e-06
3.68203e-06
-2.40526e-06
3.74321e-06
-2.75799e-06
3.71717e-06
-3.09398e-06
3.61161e-06
-3.40794e-06
3.43454e-06
-3.69566e-06
3.194e-06
-3.95383e-06
2.89784e-06
-4.17985e-06
2.55362e-06
-4.37169e-06
2.16855e-06
-4.52776e-06
1.74952e-06
-4.64676e-06
1.3031e-06
-4.72762e-06
8.35681e-07
-4.76939e-06
3.53574e-07
-4.77127e-06
-1.36879e-07
-4.73255e-06
-6.29147e-07
-4.65269e-06
-1.11638e-06
-4.53135e-06
-1.59125e-06
-4.36854e-06
-2.04592e-06
-4.16475e-06
-2.47185e-06
-3.92114e-06
-2.85989e-06
-3.63971e-06
-3.20025e-06
-3.32361e-06
-3.48263e-06
-2.97728e-06
-3.69642e-06
-2.60673e-06
-3.83106e-06
-2.21969e-06
-3.87642e-06
-1.82571e-06
-3.82336e-06
-1.43618e-06
-3.66434e-06
-1.06417e-06
-3.39409e-06
-7.24211e-07
-3.01028e-06
-4.31865e-07
-2.51412e-06
-2.03201e-07
-1.91075e-06
-5.4195e-08
-1.20944e-06
-4.24479e-07
-5.46007e-08
4.80341e-07
-2.02455e-07
1.34346e-06
-4.26944e-07
2.09546e-06
-7.11519e-07
2.7285e-06
-1.04034e-06
3.23958e-06
-1.39874e-06
3.62934e-06
-1.77357e-06
3.90142e-06
-2.15337e-06
4.06183e-06
-2.52844e-06
4.11828e-06
-2.89078e-06
4.07951e-06
-3.23398e-06
3.95481e-06
-3.55302e-06
3.75358e-06
-3.84408e-06
3.48506e-06
-4.10428e-06
3.15804e-06
-4.33151e-06
2.78086e-06
-4.52423e-06
2.36126e-06
-4.68123e-06
1.90652e-06
-4.80158e-06
1.42345e-06
-4.88445e-06
9.18551e-07
-4.92905e-06
3.98169e-07
-4.93457e-06
-1.31358e-07
-4.9002e-06
-6.63515e-07
-4.82515e-06
-1.19143e-06
-4.70871e-06
-1.70769e-06
-4.5504e-06
-2.20423e-06
-4.3501e-06
-2.67214e-06
-4.10832e-06
-3.10168e-06
-3.82638e-06
-3.48219e-06
-3.50677e-06
-3.80224e-06
-3.15338e-06
-4.04981e-06
-2.77186e-06
-4.21258e-06
-2.36983e-06
-4.27845e-06
-1.95709e-06
-4.2361e-06
-1.54567e-06
-4.07576e-06
-1.14973e-06
-3.79003e-06
-7.85337e-07
-3.37468e-06
-4.6996e-07
-2.8295e-06
-2.21871e-07
-2.15884e-06
-5.93925e-08
-1.37192e-06
-4.83871e-07
-5.87064e-08
5.39048e-07
-2.1705e-07
1.5018e-06
-4.56409e-07
2.33482e-06
-7.58257e-07
3.03035e-06
-1.10497e-06
3.5863e-06
-1.48042e-06
4.00479e-06
-1.87035e-06
4.29135e-06
-2.2626e-06
4.45408e-06
-2.64712e-06
4.5028e-06
-3.0159e-06
4.44828e-06
-3.36276e-06
4.30167e-06
-3.68311e-06
4.07394e-06
-3.97368e-06
3.77562e-06
-4.23221e-06
3.41657e-06
-4.45722e-06
3.00587e-06
-4.64774e-06
2.55179e-06
-4.80313e-06
2.06192e-06
-4.92289e-06
1.5432e-06
-5.00651e-06
1.00217e-06
-5.0534e-06
4.45055e-07
-5.0628e-06
-1.21951e-07
-5.03382e-06
-6.92501e-07
-4.96538e-06
-1.25986e-06
-4.85639e-06
-1.81669e-06
-4.70577e-06
-2.35485e-06
-4.51272e-06
-2.86519e-06
-4.27694e-06
-3.33747e-06
-3.99888e-06
-3.76025e-06
-3.68016e-06
-4.12096e-06
-3.3239e-06
-4.40607e-06
-2.93513e-06
-4.60135e-06
-2.52116e-06
-4.69242e-06
-2.09184e-06
-4.66542e-06
-1.65975e-06
-4.50786e-06
-1.24015e-06
-4.20962e-06
-8.50751e-07
-3.76408e-06
-5.11183e-07
-3.16907e-06
-2.42276e-07
-2.42775e-06
-6.51304e-08
-1.54907e-06
-5.49002e-07
-6.31825e-08
6.0223e-07
-2.3281e-07
1.67143e-06
-4.87879e-07
2.58989e-06
-8.07518e-07
3.34999e-06
-1.17203e-06
3.95081e-06
-1.56362e-06
4.39638e-06
-1.96686e-06
4.69459e-06
-2.36889e-06
4.8561e-06
-2.75942e-06
4.89333e-06
-3.13057e-06
4.81944e-06
-3.47661e-06
4.6477e-06
-3.79356e-06
4.39089e-06
-4.0789e-06
4.06097e-06
-4.33119e-06
3.66886e-06
-4.54973e-06
3.2244e-06
-4.7343e-06
2.73636e-06
-4.88492e-06
2.21254e-06
-5.00163e-06
1.65991e-06
-5.08434e-06
1.08488e-06
-5.13271e-06
4.93428e-07
-5.14611e-06
-1.08559e-07
-5.12353e-06
-7.15081e-07
-5.06366e-06
-1.31973e-06
-4.96495e-06
-1.91541e-06
-4.82569e-06
-2.4941e-06
-4.64429e-06
-3.04659e-06
-4.41946e-06
-3.56229e-06
-4.15062e-06
-4.02909e-06
-3.83826e-06
-4.43332e-06
-3.48444e-06
-4.75988e-06
-3.0933e-06
-4.99249e-06
-2.6715e-06
-5.11421e-06
-2.22874e-06
-5.10818e-06
-1.77795e-06
-4.95864e-06
-1.33547e-06
-4.65211e-06
-9.20753e-07
-4.17879e-06
-5.55876e-07
-3.53395e-06
-2.64652e-07
-2.71897e-06
-7.14929e-08
-1.74223e-06
-6.20495e-07
-6.81325e-08
6.70363e-07
-2.50048e-07
1.85335e-06
-5.21856e-07
2.8617e-06
-8.59866e-07
3.688e-06
-1.24194e-06
4.33288e-06
-1.64838e-06
4.80282e-06
-2.0625e-06
5.10871e-06
-2.47082e-06
5.26442e-06
-2.86294e-06
5.28545e-06
-3.23135e-06
5.18785e-06
-3.57097e-06
4.98732e-06
-3.87871e-06
4.69863e-06
-4.15304e-06
4.3353e-06
-4.39353e-06
3.90935e-06
-4.60047e-06
3.43134e-06
-4.77455e-06
2.91044e-06
-4.91656e-06
2.35456e-06
-5.02722e-06
1.77057e-06
-5.10692e-06
1.16458e-06
-5.15566e-06
5.4217e-07
-5.17295e-06
-9.12704e-08
-5.15775e-06
-7.30277e-07
-5.10851e-06
-1.36897e-06
-5.02319e-06
-2.00072e-06
-4.89943e-06
-2.61786e-06
-4.73471e-06
-3.21131e-06
-4.52665e-06
-3.77035e-06
-4.2734e-06
-4.28235e-06
-3.97406e-06
-4.73266e-06
-3.62932e-06
-5.10463e-06
-3.24202e-06
-5.37979e-06
-2.81786e-06
-5.53837e-06
-2.36599e-06
-5.56006e-06
-1.89948e-06
-5.42515e-06
-1.4356e-06
-5.11599e-06
-9.95644e-07
-4.61875e-06
-6.04438e-07
-3.92515e-06
-2.89287e-07
-3.03413e-06
-7.85849e-08
-1.95293e-06
-6.99079e-07
-7.36993e-08
7.44062e-07
-2.69189e-07
2.04884e-06
-5.59018e-07
3.15153e-06
-9.16044e-07
4.04502e-06
-1.31521e-06
4.73205e-06
-1.73469e-06
5.2223e-06
-2.15647e-06
5.53049e-06
-2.56653e-06
5.67447e-06
-2.95462e-06
5.67354e-06
-3.31386e-06
5.5471e-06
-3.64017e-06
5.31362e-06
-3.93163e-06
4.9901e-06
-4.18798e-06
4.59165e-06
-4.41006e-06
4.13142e-06
-4.59932e-06
3.62061e-06
-4.75754e-06
3.06865e-06
-4.88642e-06
2.48344e-06
-4.98742e-06
1.87157e-06
-5.06154e-06
1.2387e-06
-5.10918e-06
5.89808e-07
-5.13005e-06
-7.04033e-08
-5.12311e-06
-7.37212e-07
-5.0866e-06
-1.40548e-06
-5.01802e-06
-2.06931e-06
-4.91429e-06
-2.72159e-06
-4.77193e-06
-3.35367e-06
-4.58732e-06
-3.95496e-06
-4.35712e-06
-4.51254e-06
-4.0788e-06
-5.01098e-06
-3.75127e-06
-5.43216e-06
-3.37568e-06
-5.75538e-06
-2.95624e-06
-5.9578e-06
-2.50113e-06
-6.01517e-06
-2.02315e-06
-5.90312e-06
-1.5403e-06
-5.59885e-06
-1.07574e-06
-5.08331e-06
-6.57348e-07
-4.34354e-06
-3.16546e-07
-3.37493e-06
-8.65427e-08
-2.18293e-06
-7.85622e-07
-8.00831e-08
8.24145e-07
-2.9082e-07
2.25957e-06
-6.00272e-07
3.46098e-06
-9.77017e-07
4.42177e-06
-1.39251e-06
5.14754e-06
-1.82248e-06
5.65227e-06
-2.2476e-06
5.95561e-06
-2.65351e-06
6.08038e-06
-3.03045e-06
6.05048e-06
-3.37256e-06
5.88921e-06
-3.67714e-06
5.6182e-06
-3.94384e-06
5.2568e-06
-4.17398e-06
4.82179e-06
-4.36989e-06
4.32733e-06
-4.53443e-06
3.78515e-06
-4.67058e-06
3.2048e-06
-4.7811e-06
2.59396e-06
-4.86828e-06
1.95875e-06
-4.93379e-06
1.3042e-06
-4.97848e-06
6.345e-07
-5.00234e-06
-4.65453e-08
-5.00439e-06
-7.3516e-07
-4.98268e-06
-1.42719e-06
-4.93431e-06
-2.11768e-06
-4.85549e-06
-2.80041e-06
-4.74173e-06
-3.46744e-06
-4.58808e-06
-4.10861e-06
-4.38954e-06
-4.71108e-06
-4.14164e-06
-5.25888e-06
-3.84114e-06
-5.73265e-06
-3.48698e-06
-6.10954e-06
-3.08133e-06
-6.36345e-06
-2.63074e-06
-6.46577e-06
-2.14722e-06
-6.38664e-06
-1.64911e-06
-6.09697e-06
-1.16135e-06
-5.57106e-06
-7.15206e-07
-4.78969e-06
-3.46906e-07
-3.74323e-06
-9.55484e-08
-2.43429e-06
-8.81171e-07
-8.75648e-08
9.1171e-07
-3.15746e-07
2.48775e-06
-6.4683e-07
3.79206e-06
-1.04401e-06
4.81895e-06
-1.47454e-06
5.57807e-06
-1.91143e-06
6.08916e-06
-2.33413e-06
6.3783e-06
-2.72829e-06
6.47455e-06
-3.08511e-06
6.4073e-06
-3.40029e-06
6.20439e-06
-3.67302e-06
5.89093e-06
-3.90493e-06
5.48871e-06
-4.09926e-06
5.01611e-06
-4.26012e-06
4.48819e-06
-4.39195e-06
3.91698e-06
-4.49907e-06
3.31192e-06
-4.58537e-06
2.68025e-06
-4.65404e-06
2.02743e-06
-4.70745e-06
1.35762e-06
-4.747e-06
6.74042e-07
-4.77297e-06
-2.05769e-08
-4.78451e-06
-7.23618e-07
-4.77957e-06
-1.43212e-06
-4.7549e-06
-2.14235e-06
-4.70606e-06
-2.84925e-06
-4.62757e-06
-3.54593e-06
-4.5131e-06
-4.22307e-06
-4.3559e-06
-4.86829e-06
-4.14927e-06
-5.46551e-06
-3.88744e-06
-5.99448e-06
-3.56658e-06
-6.4304e-06
-3.1861e-06
-6.74393e-06
-2.75016e-06
-6.9017e-06
-2.2692e-06
-6.8676e-06
-1.76125e-06
-6.60491e-06
-1.25283e-06
-6.07948e-06
-7.78779e-07
-5.26374e-06
-3.81006e-07
-4.141e-06
-1.05853e-07
-2.70944e-06
-9.87024e-07
-9.65439e-08
1.00825e-06
-3.45074e-07
2.73628e-06
-7.00298e-07
4.14729e-06
-1.11855e-06
5.2372e-06
-1.56202e-06
6.02154e-06
-2.00079e-06
6.52794e-06
-2.41335e-06
6.79085e-06
-2.78594e-06
6.84714e-06
-3.1114e-06
6.73277e-06
-3.38771e-06
6.48071e-06
-3.61654e-06
6.11975e-06
-3.80199e-06
5.67416e-06
-3.94959e-06
5.16372e-06
-4.06548e-06
4.60407e-06
-4.15579e-06
4.0073e-06
-4.22629e-06
3.38242e-06
-4.282e-06
2.73596e-06
-4.32708e-06
2.0725e-06
-4.36459e-06
1.39513e-06
-4.39647e-06
7.05916e-07
-4.42337e-06
6.32265e-09
-4.44463e-06
-7.02356e-07
-4.45819e-06
-1.41856e-06
-4.46055e-06
-2.13999e-06
-4.44675e-06
-2.86305e-06
-4.41041e-06
-3.58227e-06
-4.34389e-06
-4.2896e-06
-4.23858e-06
-4.97359e-06
-4.08545e-06
-5.61864e-06
-3.87581e-06
-6.20413e-06
-3.60247e-06
-6.70374e-06
-3.26129e-06
-7.08512e-06
-2.85302e-06
-7.30997e-06
-2.38547e-06
-7.33516e-06
-1.87547e-06
-7.11491e-06
-1.35047e-06
-6.60447e-06
-8.49055e-07
-5.76516e-06
-4.19724e-07
-4.57033e-06
-1.17811e-07
-3.01136e-06
-1.10483e-06
-1.07595e-07
1.11585e-06
-3.80339e-07
3.00903e-06
-7.62772e-07
4.52972e-06
-1.20241e-06
5.67684e-06
-1.65542e-06
6.47455e-06
-2.08891e-06
6.96143e-06
-2.48095e-06
7.18289e-06
-2.8193e-06
7.18549e-06
-3.09943e-06
7.0129e-06
-3.32247e-06
6.70374e-06
-3.49329e-06
6.29057e-06
-3.619e-06
5.79988e-06
-3.70775e-06
5.25246e-06
-3.76787e-06
4.66419e-06
-3.8073e-06
4.04673e-06
-3.83321e-06
3.40833e-06
-3.85177e-06
2.75452e-06
-3.86798e-06
2.08871e-06
-3.8856e-06
1.41275e-06
-3.90707e-06
7.2739e-07
-3.93345e-06
3.27014e-08
-3.96433e-06
-6.71481e-07
-3.99774e-06
-1.38515e-06
-4.03011e-06
-2.10762e-06
-4.05611e-06
-2.83705e-06
-4.06868e-06
-3.56971e-06
-4.05901e-06
-4.29926e-06
-4.01679e-06
-5.01582e-06
-3.93053e-06
-5.7049e-06
-3.78838e-06
-6.34628e-06
-3.57926e-06
-6.91287e-06
-3.29457e-06
-7.3698e-06
-2.93051e-06
-7.67403e-06
-2.49079e-06
-7.77488e-06
-1.98964e-06
-7.61607e-06
-1.45446e-06
-7.13965e-06
-9.27307e-07
-6.29232e-06
-4.64277e-07
-5.03336e-06
-1.31935e-07
-3.3437e-06
-1.23677e-06
-1.21558e-07
1.23741e-06
-4.23668e-07
3.31114e-06
-8.36949e-07
4.943e-06
-1.29753e-06
6.13741e-06
-1.75456e-06
6.93158e-06
-2.17247e-06
7.37934e-06
-2.53002e-06
7.54045e-06
-2.81785e-06
7.47332e-06
-3.03541e-06
7.23045e-06
-3.18806e-06
6.85639e-06
-3.2847e-06
6.38722e-06
-3.33595e-06
5.85113e-06
-3.35283e-06
5.26934e-06
-3.34594e-06
4.65731e-06
-3.32498e-06
4.02576e-06
-3.29841e-06
3.38176e-06
-3.27336e-06
2.72948e-06
-3.25559e-06
2.07094e-06
-3.2494e-06
1.40657e-06
-3.25769e-06
7.35681e-07
-3.28189e-06
5.69e-08
-3.3219e-06
-6.31472e-07
-3.376e-06
-1.33105e-06
-3.4407e-06
-2.04292e-06
-3.51061e-06
-2.76713e-06
-3.57828e-06
-3.50204e-06
-3.63405e-06
-4.24348e-06
-3.66615e-06
-4.98372e-06
-3.66081e-06
-5.71023e-06
-3.60295e-06
-6.40414e-06
-3.47716e-06
-7.03865e-06
-3.26956e-06
-7.5774e-06
-2.97036e-06
-7.97323e-06
-2.5774e-06
-8.16784e-06
-2.10029e-06
-8.09318e-06
-1.56462e-06
-7.67532e-06
-1.01514e-06
-6.84179e-06
-5.16383e-07
-5.53212e-06
-1.48987e-07
-3.7111e-06
-1.38576e-06
-1.39693e-07
1.3771e-06
-4.78029e-07
3.64947e-06
-9.26196e-07
5.39117e-06
-1.40563e-06
6.61685e-06
-1.85773e-06
7.38368e-06
-2.24522e-06
7.76683e-06
-2.54946e-06
7.84469e-06
-2.76599e-06
7.68984e-06
-2.89997e-06
7.36444e-06
-2.96234e-06
6.91875e-06
-2.9668e-06
6.39169e-06
-2.92787e-06
5.8122e-06
-2.85955e-06
5.20102e-06
-2.77461e-06
4.57236e-06
-2.68424e-06
3.9354e-06
-2.59795e-06
3.29547e-06
-2.52356e-06
2.65509e-06
-2.46728e-06
2.01466e-06
-2.43379e-06
1.37308e-06
-2.4263e-06
7.28194e-07
-2.44657e-06
7.71682e-08
-2.49484e-06
-5.83197e-07
-2.56977e-06
-1.25612e-06
-2.66821e-06
-1.94448e-06
-2.78503e-06
-2.65032e-06
-2.9128e-06
-3.37428e-06
-3.04153e-06
-4.11475e-06
-3.15847e-06
-4.86678e-06
-3.24804e-06
-5.62066e-06
-3.2921e-06
-6.36008e-06
-3.27081e-06
-7.05994e-06
-3.16427e-06
-7.68395e-06
-2.9553e-06
-8.1822e-06
-2.63366e-06
-8.48948e-06
-2.20154e-06
-8.5253e-06
-1.67994e-06
-8.19692e-06
-1.11448e-06
-7.40725e-06
-5.78476e-07
-6.06812e-06
-1.70135e-07
-4.11944e-06
-1.55589e-06
-1.63941e-07
1.54104e-06
-5.47572e-07
4.03311e-06
-1.03449e-06
5.87809e-06
-1.52748e-06
7.10984e-06
-1.96013e-06
7.81632e-06
-2.2958e-06
8.1025e-06
-2.5215e-06
8.07039e-06
-2.64052e-06
7.80887e-06
-2.66593e-06
7.38985e-06
-2.61556e-06
6.86838e-06
-2.50863e-06
6.28475e-06
-2.36367e-06
5.66724e-06
-2.19748e-06
5.03482e-06
-2.02459e-06
4.39948e-06
-1.85725e-06
3.76806e-06
-1.70551e-06