/*--------------------------------*- C++ -*----------------------------------*\
  =========                 |
  \\      /  F ield         | OpenFOAM: The Open Source CFD Toolbox
   \\    /   O peration     | Website:  https://openfoam.org
    \\  /    A nd           | Version:  7
     \\/     M anipulation  |
\*---------------------------------------------------------------------------*/
FoamFile
{
    version     2.0;
    format      ascii;
    class       volVectorField;
    location    "0.16";
    object      U;
}
// * * * * * * * * * * * * * * * * * * * * * * * * * * * * * * * * * * * * * //

dimensions      [0 1 -1 0 0 0 0];

internalField   nonuniform List<vector> 
1600
(
(6.0523e-05 -6.02899e-05 0)
(0.000155842 -5.69236e-05 0)
(0.000156653 -6.94178e-06 0)
(6.38902e-06 5.2427e-05 0)
(-0.000303327 0.000107857 0)
(-0.000756141 0.000154639 0)
(-0.00132762 0.000191411 0)
(-0.00199084 0.00021821 0)
(-0.0027186 0.000235609 0)
(-0.00348464 0.000244353 0)
(-0.00426428 0.000245236 0)
(-0.00503464 0.000239037 0)
(-0.00577491 0.000226518 0)
(-0.00646634 0.000208413 0)
(-0.00709231 0.000185428 0)
(-0.00763835 0.000158255 0)
(-0.00809214 0.000127573 0)
(-0.00844356 9.40626e-05 0)
(-0.00868468 5.84115e-05 0)
(-0.00880987 2.13262e-05 0)
(-0.00881584 -1.64605e-05 0)
(-0.00870175 -5.41816e-05 0)
(-0.00846926 -9.10341e-05 0)
(-0.00812269 -0.000126181 0)
(-0.00766902 -0.000158753 0)
(-0.00711803 -0.000187855 0)
(-0.00648226 -0.000212572 0)
(-0.00577705 -0.000231991 0)
(-0.00502042 -0.000245213 0)
(-0.00423293 -0.000251375 0)
(-0.0034375 -0.000249666 0)
(-0.00265902 -0.000239348 0)
(-0.001924 -0.000219782 0)
(-0.0012599 -0.000190486 0)
(-0.000694274 -0.000151262 0)
(-0.000253325 -0.000102531 0)
(4.04614e-05 -4.61757e-05 0)
(0.000173963 1.2578e-05 0)
(0.000160088 6.00637e-05 0)
(6.01639e-05 5.99271e-05 0)
(5.86052e-05 -0.00015651 0)
(7.23967e-05 -6.90642e-05 0)
(-0.000178469 0.000182386 0)
(-0.000772233 0.000476589 0)
(-0.00172334 0.000760283 0)
(-0.00300525 0.00100835 0)
(-0.0045695 0.00120948 0)
(-0.00635674 0.00135978 0)
(-0.00830329 0.00145916 0)
(-0.010345 0.00150949 0)
(-0.0124197 0.00151376 0)
(-0.0144685 0.00147553 0)
(-0.0164369 0.00139865 0)
(-0.0182755 0.00128716 0)
(-0.01994 0.00114522 0)
(-0.0213916 0.000976999 0)
(-0.0225973 0.000786765 0)
(-0.02353 0.000578842 0)
(-0.0241685 0.000357657 0)
(-0.0244981 0.000127766 0)
(-0.0245101 -0.000106122 0)
(-0.0242028 -0.000339125 0)
(-0.023581 -0.000566188 0)
(-0.0226569 -0.000782097 0)
(-0.0214494 -0.000981515 0)
(-0.019985 -0.00115903 0)
(-0.0182974 -0.00130924 0)
(-0.0164271 -0.00142685 0)
(-0.0144217 -0.00150682 0)
(-0.0123346 -0.00154448 0)
(-0.010225 -0.00153577 0)
(-0.00815603 -0.00147739 0)
(-0.00619384 -0.0013672 0)
(-0.00440506 -0.00120463 0)
(-0.00285405 -0.000991566 0)
(-0.00159849 -0.000734067 0)
(-0.000682795 -0.000445669 0)
(-0.000127085 -0.0001535 0)
(9.17257e-05 8.80906e-05 0)
(6.16173e-05 0.000160474 0)
(1.14357e-05 -0.000162365 0)
(-0.000171755 0.000178646 0)
(-0.000803207 0.000813366 0)
(-0.00192898 0.00153491 0)
(-0.00354993 0.00223643 0)
(-0.00563016 0.00285853 0)
(-0.00810494 0.00336964 0)
(-0.0108929 0.00375539 0)
(-0.0139046 0.00401162 0)
(-0.0170481 0.00414026 0)
(-0.0202329 0.00414701 0)
(-0.0233721 0.00403983 0)
(-0.0263846 0.00382814 0)
(-0.029196 0.00352225 0)
(-0.0317394 0.00313306 0)
(-0.0339563 0.00267186 0)
(-0.0357965 0.00215028 0)
(-0.0372188 0.00158025 0)
(-0.0381913 0.000974053 0)
(-0.0386914 0.000344338 0)
(-0.0387067 -0.000295843 0)
(-0.0382346 -0.000933008 0)
(-0.0372829 -0.00155326 0)
(-0.0358703 -0.00214237 0)
(-0.0340261 -0.00268583 0)
(-0.0317905 -0.00316909 0)
(-0.0292145 -0.00357777 0)
(-0.0263592 -0.00389795 0)
(-0.0232958 -0.00411654 0)
(-0.0201042 -0.00422182 0)
(-0.0168716 -0.00420389 0)
(-0.0136908 -0.00405552 0)
(-0.0106576 -0.00377299 0)
(-0.0078673 -0.00335758 0)
(-0.00541036 -0.00281771 0)
(-0.00336614 -0.0021727 0)
(-0.00179426 -0.00145915 0)
(-0.000722599 -0.000740774 0)
(-0.000138848 -0.000126656 0)
(1.76116e-05 0.000179721 0)
(-4.53299e-05 -2.17581e-05 0)
(-0.000463772 0.00076756 0)
(-0.00153351 0.00193958 0)
(-0.00323788 0.00322328 0)
(-0.00554784 0.00446324 0)
(-0.00841246 0.00556471 0)
(-0.0117509 0.00647275 0)
(-0.0154632 0.00715929 0)
(-0.01944 0.00761369 0)
(-0.0235677 0.00783664 0)
(-0.0277339 0.00783628 0)
(-0.0318298 0.00762559 0)
(-0.035753 0.00722082 0)
(-0.0394093 0.00664035 0)
(-0.0427137 0.00590402 0)
(-0.0455914 0.00503273 0)
(-0.0479784 0.0040482 0)
(-0.0498221 0.00297287 0)
(-0.0510816 0.0018299 0)
(-0.0517284 0.000643179 0)
(-0.0517465 -0.000562659 0)
(-0.051133 -0.00176222 0)
(-0.0498982 -0.00292941 0)
(-0.048066 -0.0040376 0)
(-0.0456742 -0.00505979 0)
(-0.0427741 -0.00596902 0)
(-0.0394307 -0.0067388 0)
(-0.0357218 -0.00734372 0)
(-0.0317373 -0.00776017 0)
(-0.027578 -0.00796729 0)
(-0.0233534 -0.00794807 0)
(-0.0191794 -0.00769073 0)
(-0.015175 -0.00719056 0)
(-0.0114579 -0.00645232 0)
(-0.00813908 -0.00549389 0)
(-0.00531661 -0.00435169 0)
(-0.00306579 -0.00308918 0)
(-0.00142846 -0.00180846 0)
(-0.000419636 -0.00066929 0)
(-3.66497e-05 5.95348e-05 0)
(-0.000100302 0.000278461 0)
(-0.000760133 0.00172753 0)
(-0.00228685 0.00358815 0)
(-0.00458774 0.00554983 0)
(-0.00759346 0.00742015 0)
(-0.0112321 0.00907418 0)
(-0.0154039 0.010435 0)
(-0.0199912 0.0114607 0)
(-0.0248662 0.0121334 0)
(-0.0298979 0.0124519 0)
(-0.0349556 0.0124266 0)
(-0.039913 0.0120759 0)
(-0.0446508 0.0114237 0)
(-0.0490588 0.0104977 0)
(-0.0530374 0.00932825 0)
(-0.0564989 0.00794772 0)
(-0.0593681 0.00638995 0)
(-0.061583 0.00469011 0)
(-0.0630959 0.00288456 0)
(-0.063873 0.00101086 0)
(-0.0638957 -0.000892277 0)
(-0.0631605 -0.00278501 0)
(-0.0616797 -0.00462648 0)
(-0.0594816 -0.00637506 0)
(-0.0566102 -0.00798876 0)
(-0.053126 -0.00942574 0)
(-0.0491048 -0.0106451 0)
(-0.0446378 -0.0116077 0)
(-0.03983 -0.0122778 0)
(-0.0347988 -0.0126237 0)
(-0.0296717 -0.0126205 0)
(-0.0245834 -0.0122514 0)
(-0.019672 -0.0115109 0)
(-0.0150741 -0.0104081 0)
(-0.0109197 -0.00897122 0)
(-0.00732542 -0.00725464 0)
(-0.00438526 -0.00534779 0)
(-0.00216127 -0.00338691 0)
(-0.000706415 -0.00157215 0)
(-8.94807e-05 -0.000214672 0)
(-0.000150443 0.000731876 0)
(-0.00104441 0.00305929 0)
(-0.00302565 0.00576636 0)
(-0.00592298 0.00852194 0)
(-0.00962152 0.0111082 0)
(-0.0140236 0.0133771 0)
(-0.0190078 0.0152335 0)
(-0.0244369 0.0166233 0)
(-0.030166 0.0175222 0)
(-0.0360474 0.0179277 0)
(-0.041935 0.017853 0)
(-0.0476877 0.0173222 0)
(-0.0531722 0.0163679 0)
(-0.0582654 0.0150282 0)
(-0.0628561 0.0133452 0)
(-0.066846 0.0113643 0)
(-0.070151 0.00913311 0)
(-0.0727018 0.00670129 0)
(-0.0744448 0.00412029 0)
(-0.0753422 0.00144325 0)
(-0.0753731 -0.00127504 0)
(-0.0745334 -0.00397823 0)
(-0.0728367 -0.00660866 0)
(-0.0703142 -0.00910766 0)
(-0.0670151 -0.0114161 0)
(-0.0630066 -0.0134754 0)
(-0.0583733 -0.0152281 0)
(-0.0532168 -0.0166199 0)
(-0.0476541 -0.0176008 0)
(-0.0418164 -0.0181273 0)
(-0.035846 -0.0181653 0)
(-0.0298939 -0.0176924 0)
(-0.0241151 -0.0167017 0)
(-0.0186641 -0.0152062 0)
(-0.0136897 -0.0132443 0)
(-0.00932889 -0.0108866 0)
(-0.00569771 -0.00824573 0)
(-0.00288347 -0.005486 0)
(-0.000982458 -0.00283776 0)
(-0.000137668 -0.000637239 0)
(-0.000195659 0.00132818 0)
(-0.00131228 0.00475149 0)
(-0.00373617 0.00846662 0)
(-0.00722049 0.0121341 0)
(-0.0116033 0.0155203 0)
(-0.0167579 0.0184612 0)
(-0.0225387 0.0208485 0)
(-0.0287874 0.022619 0)
(-0.035341 0.023744 0)
(-0.042036 0.024221 0)
(-0.0487119 0.0240668 0)
(-0.0552145 0.023313 0)
(-0.0613987 0.0220013 0)
(-0.0671308 0.0201815 0)
(-0.0722899 0.0179087 0)
(-0.0767694 0.0152426 0)
(-0.0804781 0.0122458 0)
(-0.0833408 0.00898399 0)
(-0.0852992 0.00552508 0)
(-0.0863121 0.00193931 0)
(-0.0863565 -0.00170091 0)
(-0.0854277 -0.0053212 0)
(-0.0835397 -0.00884547 0)
(-0.0807259 -0.0121964 0)
(-0.0770391 -0.0152961 0)
(-0.0725512 -0.0180673 0)
(-0.0673537 -0.0204348 0)
(-0.0615563 -0.0223269 0)
(-0.0552859 -0.0236782 0)
(-0.048685 -0.024432 0)
(-0.0419093 -0.0245432 0)
(-0.035124 -0.0239827 0)
(-0.0285007 -0.0227409 0)
(-0.0222117 -0.0208336 0)
(-0.0164256 -0.0183071 0)
(-0.011302 -0.0152462 0)
(-0.00698223 -0.0117821 0)
(-0.00358226 -0.0081016 0)
(-0.00124363 -0.00445684 0)
(-0.000181093 -0.00119849 0)
(-0.000236891 0.0020577 0)
(-0.00156496 0.00678964 0)
(-0.00441739 0.0116756 0)
(-0.00847616 0.0163748 0)
(-0.0135325 0.0206455 0)
(-0.0194294 0.0243139 0)
(-0.0259946 0.0272636 0)
(-0.0330473 0.0294263 0)
(-0.0404056 0.0307717 0)
(-0.0478901 0.0312996 0)
(-0.0553263 0.0310324 0)
(-0.062548 0.03001 0)
(-0.0693997 0.0282851 0)
(-0.0757385 0.0259201 0)
(-0.0814358 0.0229845 0)
(-0.0863782 0.0195531 0)
(-0.0904689 0.0157051 0)
(-0.093628 0.0115228 0)
(-0.0957933 0.00709193 0)
(-0.096921 0.00250086 0)
(-0.096986 -0.00215932 0)
(-0.0959826 -0.00679502 0)
(-0.0939248 -0.0113105 0)
(-0.090847 -0.0156086 0)
(-0.0868041 -0.0195913 0)
(-0.0818716 -0.0231613 0)
(-0.0761456 -0.0262238 0)
(-0.0697423 -0.0286886 0)
(-0.0627966 -0.030473 0)
(-0.0554611 -0.0315051 0)
(-0.0479031 -0.0317275 0)
(-0.0403021 -0.0311021 0)
(-0.0328455 -0.029615 0)
(-0.0257245 -0.0272821 0)
(-0.0191294 -0.0241553 0)
(-0.0132442 -0.0203299 0)
(-0.00823821 -0.0159519 0)
(-0.00425841 -0.0112251 0)
(-0.00149178 -0.00641776 0)
(-0.000220771 -0.00188958 0)
(-0.000275276 0.00291269 0)
(-0.00180582 0.00916045 0)
(-0.00507426 0.0153799 0)
(-0.00969574 0.0212324 0)
(-0.0154158 0.0264734 0)
(-0.0220459 0.0309248 0)
(-0.0293862 0.034467 0)
(-0.0372321 0.0370307 0)
(-0.0453817 0.0385876 0)
(-0.0536392 0.0391424 0)
(-0.0618163 0.0387256 0)
(-0.0697356 0.0373872 0)
(-0.0772321 0.0351926 0)
(-0.084155 0.0322183 0)
(-0.0903692 0.0285491 0)
(-0.095756 0.0242763 0)
(-0.100214 0.0194961 0)
(-0.10366 0.0143089 0)
(-0.106029 0.00881848 0)
(-0.107273 0.0031323 0)
(-0.107368 -0.00263915 0)
(-0.106304 -0.00838234 0)
(-0.104096 -0.0139811 0)
(-0.100779 -0.0193173 0)
(-0.0964065 -0.0242719 0)
(-0.0910578 -0.0287263 0)
(-0.0848316 -0.0325648 0)
(-0.0778489 -0.0356767 0)
(-0.0702513 -0.0379604 0)
(-0.0622001 -0.0393265 0)
(-0.0538736 -0.0397033 0)
(-0.045465 -0.0390413 0)
(-0.0371786 -0.0373193 0)
(-0.0292252 -0.0345505 0)
(-0.0218182 -0.0307891 0)
(-0.0151687 -0.0261372 0)
(-0.00947593 -0.0207519 0)
(-0.00491939 -0.0148496 0)
(-0.00173118 -0.00871116 0)
(-0.000258 -0.00270403 0)
(-0.000311868 0.00388768 0)
(-0.00203875 0.0118537 0)
(-0.0057141 0.0195685 0)
(-0.0108894 0.0266971 0)
(-0.0172657 0.0329955 0)
(-0.0246224 0.038286 0)
(-0.0327311 0.0424502 0)
(-0.0413622 0.0454222 0)
(-0.0502934 0.0471794 0)
(-0.0593118 0.0477348 0)
(-0.0682156 0.0471295 0)
(-0.0768162 0.0454263 0)
(-0.0849402 0.042705 0)
(-0.0924298 0.0390578 0)
(-0.0991448 0.0345861 0)
(-0.104962 0.0293986 0)
(-0.109778 0.0236096 0)
(-0.113504 0.0173376 0)
(-0.116075 0.0107056 0)
(-0.117442 0.00384019 0)
(-0.117575 -0.00312837 0)
(-0.116467 -0.0100662 0)
(-0.114129 -0.0168361 0)
(-0.110594 -0.0232985 0)
(-0.105918 -0.0293123 0)
(-0.100179 -0.0347366 0)
(-0.0934771 -0.0394332 0)
(-0.0859374 -0.0432695 0)
(-0.0777066 -0.0461226 0)
(-0.0689534 -0.0478837 0)
(-0.0598669 -0.0484634 0)
(-0.0506538 -0.047798 0)
(-0.0415356 -0.0458556 0)
(-0.0327441 -0.0426432 0)
(-0.0245176 -0.0382136 0)
(-0.0170962 -0.0326722 0)
(-0.010711 -0.0261829 0)
(-0.00557551 -0.0189724 0)
(-0.00196691 -0.0113321 0)
(-0.000294041 -0.00363814 0)
(-0.000347566 0.00497944 0)
(-0.00226751 0.0148631 0)
(-0.00634478 0.0242345 0)
(-0.012069 0.0327624 0)
(-0.0190971 0.0402062 0)
(-0.0271764 0.046392 0)
(-0.0360489 0.0512072 0)
(-0.0454594 0.0545933 0)
(-0.0551643 0.0565376 0)
(-0.0649333 0.0570651 0)
(-0.0745511 0.0562305 0)
(-0.0838187 0.0541123 0)
(-0.0925546 0.0508068 0)
(-0.100596 0.0464235 0)
(-0.107797 0.0410821 0)
(-0.114033 0.0349095 0)
(-0.119197 0.0280386 0)
(-0.1232 0.0206069 0)
(-0.125974 0.0127563 0)
(-0.127468 0.00463264 0)
(-0.127652 -0.00361381 0)
(-0.126515 -0.0118288 0)
(-0.124067 -0.0198541 0)
(-0.120339 -0.0275282 0)
(-0.115385 -0.0346874 0)
(-0.109281 -0.0411674 0)
(-0.102129 -0.0468063 0)
(-0.094055 -0.0514477 0)
(-0.0852088 -0.054945 0)
(-0.0757662 -0.057167 0)
(-0.0659262 -0.0580038 0)
(-0.055909 -0.0573735 0)
(-0.0459539 -0.0552298 0)
(-0.0363148 -0.0515693 0)
(-0.0272566 -0.0464391 0)
(-0.0190503 -0.039944 0)
(-0.0119611 -0.0322519 0)
(-0.00623804 -0.0235971 0)
(-0.00220405 -0.0142812 0)
(-0.000330033 -0.00469114 0)
(-0.000383121 0.00618669 0)
(-0.00249555 0.0181858 0)
(-0.00697385 0.0293748 0)
(-0.0132463 0.0394256 0)
(-0.0209253 0.0481028 0)
(-0.0297256 0.0552398 0)
(-0.039359 0.0607336 0)
(-0.0495437 0.0645378 0)
(-0.0600142 0.0666536 0)
(-0.070523 0.067122 0)
(-0.0808413 0.0660153 0)
(-0.0907602 0.0634303 0)
(-0.100091 0.0594824 0)
(-0.108667 0.0543006 0)
(-0.116339 0.048024 0)
(-0.12298 0.0407988 0)
(-0.128483 0.0327771 0)
(-0.132758 0.0241152 0)
(-0.135735 0.0149741 0)
(-0.137364 0.00551883 0)
(-0.137611 -0.00408098 0)
(-0.136463 -0.013651 0)
(-0.133928 -0.023012 0)
(-0.130033 -0.0319807 0)
(-0.12483 -0.0403703 0)
(-0.118391 -0.0479924 0)
(-0.110817 -0.0546599 0)
(-0.102233 -0.0601906 0)
(-0.0927916 -0.064412 0)
(-0.0826742 -0.067167 0)
(-0.0720884 -0.0683215 0)
(-0.0612677 -0.0677711 0)
(-0.0504695 -0.0654506 0)
(-0.0399708 -0.0613414 0)
(-0.0300648 -0.0554805 0)
(-0.0210556 -0.0479679 0)
(-0.0132445 -0.0389722 0)
(-0.00691823 -0.0287338 0)
(-0.00244751 -0.0175643 0)
(-0.000366992 -0.00586493 0)
(-0.000419157 0.00750992 0)
(-0.00272591 0.021823 0)
(-0.00760829 0.0349908 0)
(-0.0144321 0.0466879 0)
(-0.0227646 0.0566855 0)
(-0.0322864 0.0648279 0)
(-0.0426785 0.0710257 0)
(-0.0536316 0.0752488 0)
(-0.0648581 0.0775173 0)
(-0.0760931 0.0778925 0)
(-0.0870947 0.076468 0)
(-0.0976451 0.0733626 0)
(-0.10755 0.0687135 0)
(-0.116638 0.0626714 0)
(-0.124761 0.055396 0)
(-0.131791 0.047054 0)
(-0.13762 0.0378168 0)
(-0.142159 0.0278598 0)
(-0.145339 0.0173625 0)
(-0.147108 0.00650844 0)
(-0.147431 -0.00451406 0)
(-0.146293 -0.0155113 0)
(-0.143696 -0.0262838 0)
(-0.139665 -0.0366266 0)
(-0.134246 -0.0463299 0)
(-0.127507 -0.0551805 0)
(-0.119545 -0.0629649 0)
(-0.110483 -0.0694732 0)
(-0.100473 -0.0745039 0)
(-0.0897014 -0.0778709 0)
(-0.0783818 -0.0794111 0)
(-0.0667612 -0.0789933 0)
(-0.0551147 -0.0765275 0)
(-0.0437436 -0.0719749 0)
(-0.0329709 -0.0653571 0)
(-0.0231358 -0.0567648 0)
(-0.0145789 -0.046364 0)
(-0.00762691 -0.0343994 0)
(-0.00270187 -0.021193 0)
(-0.000405827 -0.00716396 0)
(-0.000456208 0.00895109 0)
(-0.00296126 0.0257787 0)
(-0.00825437 0.0410874 0)
(-0.0156364 0.0545536 0)
(-0.0246276 0.0659572 0)
(-0.0348731 0.0751562 0)
(-0.0460214 0.0820792 0)
(-0.0577353 0.0867176 0)
(-0.0697045 0.0891154 0)
(-0.0816468 0.0893588 0)
(-0.0933083 0.0875675 0)
(-0.104463 0.0838858 0)
(-0.114913 0.0784758 0)
(-0.124485 0.071512 0)
(-0.133031 0.0631767 0)
(-0.140426 0.0536576 0)
(-0.146562 0.0431457 0)
(-0.151354 0.0318352 0)
(-0.154733 0.0199232 0)
(-0.156646 0.00761088 0)
(-0.157059 -0.004896 0)
(-0.155951 -0.0173856 0)
(-0.153323 -0.0296392 0)
(-0.149192 -0.041431 0)
(-0.143597 -0.0525284 0)
(-0.136602 -0.0626932 0)
(-0.128296 -0.0716845 0)
(-0.118796 -0.0792624 0)
(-0.108255 -0.0851937 0)
(-0.0968573 -0.0892593 0)
(-0.0848237 -0.0912625 0)
(-0.0724123 -0.0910392 0)
(-0.0599161 -0.088469 0)
(-0.0476608 -0.0834863 0)
(-0.0360008 -0.0760915 0)
(-0.0253133 -0.0663606 0)
(-0.0159808 -0.0544536 0)
(-0.00837435 -0.0406169 0)
(-0.00297144 -0.0251841 0)
(-0.000447375 -0.00859497 0)
(-0.000494747 0.0105135 0)
(-0.00320408 0.0300602 0)
(-0.00891787 0.0476732 0)
(-0.0168685 0.0630304 0)
(-0.0265258 0.0759224 0)
(-0.0374978 0.0862245 0)
(-0.0493985 0.0938883 0)
(-0.0618617 0.098932 0)
(-0.0745545 0.101429 0)
(-0.0871777 0.101496 0)
(-0.0994665 0.0992846 0)
(-0.111189 0.0949675 0)
(-0.122144 0.0887357 0)
(-0.13216 0.0807899 0)
(-0.141092 0.0713364 0)
(-0.148817 0.0605846 0)
(-0.155234 0.0487455 0)
(-0.16026 0.036031 0)
(-0.163829 0.022655 0)
(-0.165889 0.00883452 0)
(-0.166404 -0.00520876 0)
(-0.165351 -0.0192466 0)
(-0.162725 -0.0330428 0)
(-0.158536 -0.046352 0)
(-0.152816 -0.0589195 0)
(-0.145619 -0.0704822 0)
(-0.137023 -0.0807708 0)
(-0.127141 -0.0895139 0)
(-0.116117 -0.0964435 0)
(-0.104134 -0.101303 0)
(-0.0914176 -0.103857 0)
(-0.0782338 -0.103902 0)
(-0.0648927 -0.10128 0)
(-0.0517449 -0.0958915 0)
(-0.0391776 -0.0877083 0)
(-0.0276085 -0.0767858 0)
(-0.017466 -0.0632729 0)
(-0.0091703 -0.0474158 0)
(-0.00326032 -0.029559 0)
(-0.000492426 -0.0101669 0)
(-0.000535224 0.0122017 0)
(-0.00345671 0.0346774 0)
(-0.0096043 0.0547599 0)
(-0.0181367 0.0721285 0)
(-0.0284696 0.0865868 0)
(-0.0401702 0.0980318 0)
(-0.0528166 0.106444 0)
(-0.0660123 0.111874 0)
(-0.0794012 0.114432 0)
(-0.0926685 0.114271 0)
(-0.10554 0.111579 0)
(-0.117779 0.106563 0)
(-0.129185 0.0994472 0)
(-0.139591 0.09046 0)
(-0.148857 0.0798336 0)
(-0.156867 0.0677999 0)
(-0.163527 0.0545891 0)
(-0.16876 0.0404301 0)
(-0.172502 0.025552 0)
(-0.174707 0.0101857 0)
(-0.175335 -0.00543373 0)
(-0.174363 -0.021064 0)
(-0.171778 -0.0364534 0)
(-0.167582 -0.0513391 0)
(-0.161797 -0.0654459 0)
(-0.154464 -0.0784862 0)
(-0.14565 -0.0901621 0)
(-0.135455 -0.100169 0)
(-0.124014 -0.108201 0)
(-0.111505 -0.113959 0)
(-0.0981508 -0.117164 0)
(-0.0842259 -0.117565 0)
(-0.0700549 -0.114959 0)
(-0.0560126 -0.109203 0)
(-0.0425205 -0.100232 0)
(-0.0300397 -0.0880735 0)
(-0.0190494 -0.0728589 0)
(-0.0100241 -0.0548308 0)
(-0.0035725 -0.0343443 0)
(-0.000541757 -0.0118909 0)
(-0.00057811 0.0140215 0)
(-0.00372159 0.0396429 0)
(-0.0103193 0.0623622 0)
(-0.0194495 0.0818602 0)
(-0.0304684 0.0979564 0)
(-0.0428987 0.110575 0)
(-0.0562796 0.119731 0)
(-0.0701829 0.125517 0)
(-0.0842297 0.128085 0)
(-0.0980902 0.127635 0)
(-0.111483 0.124394 0)
(-0.12417 0.118613 0)
(-0.135956 0.110548 0)
(-0.14668 0.100462 0)
(-0.156211 0.0886123 0)
(-0.164444 0.0752547 0)
(-0.171295 0.0606379 0)
(-0.176695 0.0450064 0)
(-0.180587 0.0286022 0)
(-0.182928 0.0116673 0)
(-0.183679 -0.00555239 0)
(-0.182814 -0.0228038 0)
(-0.180313 -0.039823 0)
(-0.17617 -0.0563322 0)
(-0.170392 -0.0720377 0)
(-0.163006 -0.0866289 0)
(-0.154062 -0.0997794 0)
(-0.143645 -0.11115 0)
(-0.131874 -0.120394 0)
(-0.118917 -0.127167 0)
(-0.104991 -0.131137 0)
(-0.0903742 -0.131999 0)
(-0.0754023 -0.129495 0)
(-0.0604736 -0.123428 0)
(-0.0460447 -0.113686 0)
(-0.0326234 -0.100259 0)
(-0.0207447 -0.0832526 0)
(-0.010945 -0.062902 0)
(-0.00391201 -0.0395706 0)
(-0.000596174 -0.01378 0)
(-0.000623939 0.0159799 0)
(-0.00400148 0.0449722 0)
(-0.0110692 0.0704979 0)
(-0.0208162 0.0922395 0)
(-0.0325322 0.110037 0)
(-0.0456907 0.123847 0)
(-0.0597882 0.133728 0)
(-0.0743639 0.139824 0)
(-0.0890157 0.142339 0)
(-0.103401 0.141524 0)
(-0.117234 0.137658 0)
(-0.13028 0.131036 0)
(-0.142351 0.121956 0)
(-0.153299 0.110714 0)
(-0.163005 0.0975977 0)
(-0.17138 0.0828836 0)
(-0.178352 0.0668391 0)
(-0.183865 0.0497223 0)
(-0.187872 0.0317851 0)
(-0.190334 0.0132777 0)
(-0.191214 -0.00554713 0)
(-0.190483 -0.0244294 0)
(-0.188116 -0.0430967 0)
(-0.184094 -0.06126 0)
(-0.178408 -0.0786102 0)
(-0.171068 -0.0948158 0)
(-0.162105 -0.109523 0)
(-0.151579 -0.122357 0)
(-0.139591 -0.132929 0)
(-0.12629 -0.140842 0)
(-0.111885 -0.145707 0)
(-0.096647 -0.147155 0)
(-0.0809223 -0.144861 0)
(-0.0651297 -0.138563 0)
(-0.049761 -0.128088 0)
(-0.035374 -0.113375 0)
(-0.0225655 -0.0944982 0)
(-0.0119424 -0.0716742 0)
(-0.00428306 -0.0452734 0)
(-0.000656546 -0.0158495 0)
(-0.000673375 0.0180854 0)
(-0.00429973 0.0506842 0)
(-0.0118614 0.0791882 0)
(-0.0222474 0.103282 0)
(-0.0346721 0.122832 0)
(-0.0485531 0.137835 0)
(-0.0633408 0.148405 0)
(-0.0785395 0.154744 0)
(-0.0937253 0.157122 0)
(-0.108545 0.155853 0)
(-0.122713 0.151273 0)
(-0.136002 0.143729 0)
(-0.148237 0.133566 0)
(-0.159286 0.121114 0)
(-0.169053 0.106693 0)
(-0.177465 0.0906016 0)
(-0.18447 0.0731229 0)
(-0.190026 0.0545261 0)
(-0.194098 0.0350701 0)
(-0.196655 0.015009 0)
(-0.197665 -0.00540238 0)
(-0.197096 -0.0259015 0)
(-0.194915 -0.0462125 0)
(-0.191091 -0.0660396 0)
(-0.185599 -0.0850624 0)
(-0.178426 -0.102932 0)
(-0.169575 -0.119269 0)
(-0.159082 -0.133664 0)
(-0.14702 -0.145683 0)
(-0.133513 -0.154874 0)
(-0.118749 -0.160781 0)
(-0.102992 -0.162963 0)
(-0.0865877 -0.161013 0)
(-0.0699734 -0.154591 0)
(-0.0536753 -0.143448 0)
(-0.0383041 -0.127456 0)
(-0.0245252 -0.106642 0)
(-0.0130259 -0.0811968 0)
(-0.00469027 -0.0514928 0)
(-0.000723852 -0.0181169 0)
(-0.000727289 0.0203488 0)
(-0.00462067 0.0568018 0)
(-0.0127055 0.0884583 0)
(-0.0237566 0.115007 0)
(-0.0369013 0.136343 0)
(-0.0514937 0.15252 0)
(-0.0669334 0.163715 0)
(-0.0826882 0.170208 0)
(-0.0983136 0.172344 0)
(-0.11345 0.170511 0)
(-0.127816 0.165114 0)
(-0.1412 0.156559 0)
(-0.153445 0.14524 0)
(-0.164446 0.13153 0)
(-0.174128 0.115776 0)
(-0.182446 0.0982997 0)
(-0.18937 0.0793988 0)
(-0.194878 0.0593497 0)
(-0.198951 0.038414 0)
(-0.201567 0.0168448 0)
(-0.202701 -0.00510595 0)
(-0.202319 -0.0271792 0)
(-0.200382 -0.0491012 0)
(-0.196844 -0.0705754 0)
(-0.191661 -0.0912755 0)
(-0.184793 -0.110839 0)
(-0.176216 -0.128866 0)
(-0.16593 -0.144912 0)
(-0.153971 -0.158498 0)
(-0.140432 -0.169114 0)
(-0.12547 -0.176229 0)
(-0.109331 -0.179318 0)
(-0.0923533 -0.177881 0)
(-0.0749861 -0.171478 0)
(-0.0577878 -0.159764 0)
(-0.0414244 -0.142529 0)
(-0.0266374 -0.11973 0)
(-0.0142066 -0.0915233 0)
(-0.00513892 -0.0582738 0)
(-0.000799255 -0.0206025 0)
(-0.000786867 0.0227831 0)
(-0.00497009 0.0633533 0)
(-0.0136142 0.0983385 0)
(-0.025361 0.127432 0)
(-0.0392367 0.15057 0)
(-0.054522 0.167872 0)
(-0.0705599 0.1796 0)
(-0.0867809 0.186124 0)
(-0.102723 0.187884 0)
(-0.118024 0.185355 0)
(-0.132416 0.179021 0)
(-0.145708 0.169357 0)
(-0.157773 0.15681 0)
(-0.168536 0.141796 0)
(-0.177956 0.124693 0)
(-0.186019 0.105843 0)
(-0.192722 0.0855534 0)
(-0.198069 0.0641057 0)
(-0.202059 0.0417587 0)
(-0.204685 0.018759 0)
(-0.205929 -0.00465055 0)
(-0.205756 -0.028221 0)
(-0.204121 -0.0516876 0)
(-0.200966 -0.0747598 0)
(-0.196223 -0.0971121 0)
(-0.189825 -0.118376 0)
(-0.18171 -0.138132 0)
(-0.171837 -0.155908 0)
(-0.160201 -0.17118 0)
(-0.146848 -0.183374 0)
(-0.131896 -0.191882 0)
(-0.115556 -0.196081 0)
(-0.0981528 -0.19536 0)
(-0.0801358 -0.18916 0)
(-0.0620922 -0.177017 0)
(-0.0447441 -0.15861 0)
(-0.0289169 -0.13381 0)
(-0.0154969 -0.102712 0)
(-0.00563534 -0.065667 0)
(-0.000884188 -0.0233294 0)
(-0.000853752 0.0254049 0)
(-0.0053559 0.0703742 0)
(-0.0146044 0.108866 0)
(-0.0270839 0.14058 0)
(-0.0417003 0.165506 0)
(-0.0576492 0.183848 0)
(-0.0742112 0.195975 0)
(-0.0907793 0.20237 0)
(-0.106877 0.203586 0)
(-0.12215 0.200203 0)
(-0.136351 0.192796 0)
(-0.149321 0.181914 0)
(-0.160972 0.168066 0)
(-0.171268 0.151711 0)
(-0.180211 0.133257 0)
(-0.187824 0.113064 0)
(-0.194138 0.0914473 0)
(-0.199185 0.0686853 0)
(-0.20299 0.0450295 0)
(-0.205561 0.0207136 0)
(-0.206889 -0.0040355 0)
(-0.206943 -0.0289864 0)
(-0.205672 -0.0538911 0)
(-0.203003 -0.0784731 0)
(-0.198846 -0.102416 0)
(-0.193101 -0.125352 0)
(-0.185667 -0.146852 0)
(-0.176455 -0.166419 0)
(-0.165405 -0.183487 0)
(-0.152507 -0.197419 0)
(-0.137825 -0.207521 0)
(-0.121523 -0.213062 0)
(-0.103892 -0.213303 0)
(-0.0853738 -0.207542 0)
(-0.066574 -0.195164 0)
(-0.0482706 -0.175708 0)
(-0.0313802 -0.148923 0)
(-0.0169118 -0.114824 0)
(-0.00618742 -0.0737298 0)
(-0.000980482 -0.0263244 0)
(-0.000930264 0.0282357 0)
(-0.00578904 0.0779094 0)
(-0.0156992 0.120086 0)
(-0.028956 0.154475 0)
(-0.0443206 0.181138 0)
(-0.0608891 0.200388 0)
(-0.077874 0.21273 0)
(-0.0946318 0.218789 0)
(-0.11068 0.219253 0)
(-0.125681 0.214827 0)
(-0.139421 0.206189 0)
(-0.151786 0.193975 0)
(-0.162739 0.178755 0)
(-0.172296 0.161033 0)
(-0.180506 0.141246 0)
(-0.187438 0.119767 0)
(-0.193163 0.0969134 0)
(-0.197749 0.0729565 0)
(-0.201244 0.0481332 0)
(-0.203678 0.0226571 0)
(-0.205054 -0.00326853 0)
(-0.205347 -0.0294377 0)
(-0.204499 -0.0556278 0)
(-0.202424 -0.0815857 0)
(-0.199011 -0.107013 0)
(-0.194124 -0.131553 0)
(-0.18762 -0.154776 0)
(-0.179354 -0.176169 0)
(-0.169202 -0.195127 0)
(-0.157086 -0.210954 0)
(-0.142999 -0.222866 0)
(-0.127038 -0.230014 0)
(-0.109444 -0.23151 0)
(-0.0906293 -0.226482 0)
(-0.0712082 -0.21413 0)
(-0.0520093 -0.193809 0)
(-0.0340466 -0.165109 0)
(-0.0184702 -0.127928 0)
(-0.00680535 -0.0825273 0)
(-0.00109056 -0.0296193 0)
(-0.0010197 0.0313036 0)
(-0.0062847 0.0860173 0)
(-0.01693 0.132056 0)
(-0.031018 0.169145 0)
(-0.0471336 0.197442 0)
(-0.0642566 0.217408 0)
(-0.081526 0.229717 0)
(-0.0982667 0.235174 0)
(-0.114001 0.234633 0)
(-0.128424 0.228941 0)
(-0.141372 0.218898 0)
(-0.152792 0.205229 0)
(-0.16271 0.188573 0)
(-0.171204 0.169475 0)
(-0.178384 0.148397 0)
(-0.184369 0.125719 0)
(-0.189277 0.101756 0)
(-0.193211 0.0767638 0)
(-0.196251 0.0509576 0)
(-0.198451 0.0245232 0)
(-0.199826 -0.00236741 0)
(-0.200359 -0.0295422 0)
(-0.199989 -0.0568132 0)
(-0.198621 -0.0839603 0)
(-0.196118 -0.110715 0)
(-0.192314 -0.136741 0)
(-0.187015 -0.161621 0)
(-0.180019 -0.184835 0)
(-0.17113 -0.205752 0)
(-0.160184 -0.223621 0)
(-0.147088 -0.237568 0)
(-0.13185 -0.246617 0)
(-0.114635 -0.249713 0)
(-0.0958027 -0.245781 0)
(-0.0759556 -0.233795 0)
(-0.0559628 -0.212876 0)
(-0.0369392 -0.182398 0)
(-0.0201964 -0.142094 0)
(-0.00750275 -0.0921354 0)
(-0.00121773 -0.0332519 0)
(-0.00112681 0.0346461 0)
(-0.00686416 0.0947738 0)
(-0.0183397 0.144847 0)
(-0.0333234 0.184619 0)
(-0.0501836 0.21438 0)
(-0.0677648 0.234787 0)
(-0.0851297 0.24674 0)
(-0.101582 0.251261 0)
(-0.116666 0.249407 0)
(-0.13013 0.242194 0)
(-0.141883 0.230553 0)
(-0.151951 0.215309 0)
(-0.160438 0.197163 0)
(-0.167499 0.176703 0)
(-0.173309 0.154407 0)
(-0.178047 0.130657 0)
(-0.181879 0.105753 0)
(-0.18495 0.0799292 0)
(-0.187373 0.0533718 0)
(-0.189223 0.0262309 0)
(-0.190536 -0.00136126 0)
(-0.1913 -0.0292747 0)
(-0.191458 -0.0573652 0)
(-0.190904 -0.0854561 0)
(-0.189483 -0.113319 0)
(-0.186995 -0.140655 0)
(-0.183201 -0.167068 0)
(-0.177835 -0.192051 0)
(-0.170621 -0.214958 0)
(-0.161301 -0.234993 0)
(-0.149672 -0.251198 0)
(-0.13563 -0.262465 0)
(-0.119232 -0.267558 0)
(-0.100754 -0.265164 0)
(-0.0807559 -0.253982 0)
(-0.0601287 -0.232833 0)
(-0.0400864 -0.200807 0)
(-0.0221226 -0.157398 0)
(-0.00829825 -0.102643 0)
(-0.00136664 -0.0372685 0)
(-0.00125854 0.0383143 0)
(-0.00755743 0.104279 0)
(-0.0199863 0.15855 0)
(-0.0359415 0.200925 0)
(-0.0535223 0.231887 0)
(-0.0714183 0.252361 0)
(-0.0886192 0.263533 0)
(-0.104425 0.266706 0)
(-0.11843 0.263176 0)
(-0.130466 0.254153 0)
(-0.140539 0.240713 0)
(-0.148776 0.223779 0)
(-0.155378 0.204116 0)
(-0.160586 0.182341 0)
(-0.16465 0.15894 0)
(-0.167813 0.134286 0)
(-0.170291 0.108657 0)
(-0.172271 0.0822556 0)
(-0.173897 0.055229 0)
(-0.175272 0.027685 0)
(-0.176447 -0.000291308 0)
(-0.177423 -0.0286199 0)
(-0.178147 -0.0572088 0)
(-0.178507 -0.0859347 0)
(-0.178334 -0.114622 0)
(-0.1774 -0.14302 0)
(-0.175423 -0.170777 0)
(-0.172075 -0.197411 0)
(-0.166995 -0.222282 0)
(-0.15982 -0.244566 0)
(-0.150219 -0.263236 0)
(-0.137949 -0.277054 0)
(-0.122921 -0.284588 0)
(-0.105286 -0.284259 0)
(-0.0855174 -0.274433 0)
(-0.064496 -0.253554 0)
(-0.0435228 -0.220329 0)
(-0.0242921 -0.173924 0)
(-0.00921797 -0.114157 0)
(-0.00154401 -0.0417273 0)
(-0.00142525 0.0423777 0)
(-0.00840721 0.114667 0)
(-0.0219487 0.173275 0)
(-0.0389593 0.218086 0)
(-0.057204 0.249861 0)
(-0.0752003 0.269891 0)
(-0.0918784 0.279743 0)
(-0.106568 0.281066 0)
(-0.118952 0.27544 0)
(-0.128984 0.264294 0)
(-0.1368 0.248855 0)
(-0.142654 0.230141 0)
(-0.146861 0.208967 0)
(-0.149757 0.185971 0)
(-0.151672 0.16163 0)
(-0.152913 0.136294 0)
(-0.153746 0.110208 0)
(-0.154398 0.0835332 0)
(-0.155043 0.0563712 0)
(-0.155808 0.0287793 0)
(-0.156761 0.000789489 0)
(-0.157917 -0.0275748 0)
(-0.15923 -0.0562808 0)
(-0.160589 -0.0852675 0)
(-0.161817 -0.114424 0)
(-0.162667 -0.143562 0)
(-0.162819 -0.172389 0)
(-0.16189 -0.200474 0)
(-0.159436 -0.227207 0)
(-0.154984 -0.251762 0)
(-0.148059 -0.273063 0)
(-0.138248 -0.289758 0)
(-0.125279 -0.300218 0)
(-0.109119 -0.302569 0)
(-0.0900993 -0.294784 0)
(-0.0690367 -0.274838 0)
(-0.0472893 -0.240929 0)
(-0.0267638 -0.191756 0)
(-0.0102994 -0.126809 0)
(-0.00175986 -0.0467033 0)
(-0.00164281 0.046934 0)
(-0.00947518 0.126115 0)
(-0.0243334 0.189158 0)
(-0.0424831 0.236105 0)
(-0.0612754 0.268133 0)
(-0.0790478 0.28704 0)
(-0.0947051 0.294894 0)
(-0.107659 0.293769 0)
(-0.11774 0.285581 0)
(-0.125071 0.27199 0)
(-0.129959 0.254374 0)
(-0.132808 0.233831 0)
(-0.134063 0.211211 0)
(-0.134162 0.187147 0)
(-0.133515 0.162092 0)
(-0.132486 0.136357 0)
(-0.13139 0.110139 0)
(-0.130484 0.0835506 0)
(-0.129968 0.0566374 0)
(-0.129989 0.0294018 0)
(-0.130631 0.00181813 0)
(-0.131924 -0.0261505 0)
(-0.133831 -0.0545358 0)
(-0.13625 -0.0833455 0)
(-0.139005 -0.112542 0)
(-0.141841 -0.142014 0)
(-0.144415 -0.171549 0)
(-0.146299 -0.200787 0)
(-0.146977 -0.22918 0)
(-0.145866 -0.255935 0)
(-0.14234 -0.279962 0)
(-0.135794 -0.299825 0)
(-0.125724 -0.31371 0)
(-0.11185 -0.319436 0)
(-0.0942821 -0.314527 0)
(-0.07369 -0.296374 0)
(-0.0514312 -0.262512 0)
(-0.0296178 -0.210982 0)
(-0.0115976 -0.140763 0)
(-0.0020297 -0.0522965 0)
(-0.00193627 0.0521215 0)
(-0.0108518 0.138861 0)
(-0.0272836 0.206356 0)
(-0.0466344 0.254943 0)
(-0.0657512 0.286428 0)
(-0.082808 0.303322 0)
(-0.0967513 0.308343 0)
(-0.107159 0.304085 0)
(-0.114086 0.292837 0)
(-0.117888 0.276499 0)
(-0.119083 0.25658 0)
(-0.118252 0.234235 0)
(-0.115974 0.210313 0)
(-0.11279 0.185416 0)
(-0.109181 0.159949 0)
(-0.105563 0.134166 0)
(-0.102279 0.108202 0)
(-0.0996119 0.0821098 0)
(-0.0977772 0.0558753 0)
(-0.0969328 0.029442 0)
(-0.097178 0.00272512 0)
(-0.0985537 -0.024374 0)
(-0.101039 -0.0519527 0)
(-0.104547 -0.0800905 0)
(-0.108913 -0.108829 0)
(-0.113889 -0.138147 0)
(-0.119131 -0.167925 0)
(-0.124183 -0.197904 0)
(-0.12848 -0.22763 0)
(-0.131341 -0.256387 0)
(-0.131996 -0.283121 0)
(-0.129627 -0.306361 0)
(-0.12346 -0.324148 0)
(-0.112897 -0.334002 0)
(-0.0977184 -0.332953 0)
(-0.0783324 -0.317697 0)
(-0.055989 -0.2849 0)
(-0.0329625 -0.231678 0)
(-0.0131946 -0.156228 0)
(-0.00237835 -0.0586442 0)
(-0.00234677 0.0581406 0)
(-0.0126724 0.15322 0)
(-0.0309884 0.225038 0)
(-0.0515347 0.274473 0)
(-0.0705667 0.304303 0)
(-0.0861609 0.318035 0)
(-0.0974272 0.319224 0)