/*--------------------------------*- C++ -*----------------------------------*\
  =========                 |
  \\      /  F ield         | OpenFOAM: The Open Source CFD Toolbox
   \\    /   O peration     | Website:  https://openfoam.org
    \\  /    A nd           | Version:  7
     \\/     M anipulation  |
\*---------------------------------------------------------------------------*/
FoamFile
{
    version     2.0;
    format      ascii;
    class       volSymmTensorField;
    location    "500";
    object      devReff;
}
// * * * * * * * * * * * * * * * * * * * * * * * * * * * * * * * * * * * * * //

dimensions      [0 2 -2 0 0 0 0];

internalField   nonuniform List<symmTensor> 
180
(
(1.29596e-20 -0.0361705 -0 -2.59191e-20 -0 1.29596e-20)
(6.3094e-21 -0.050916 -0 -1.26188e-20 -0 6.3094e-21)
(3.10587e-20 -0.0230487 -0 -6.21175e-20 -0 3.10587e-20)
(-2.64444e-20 -0.0250206 -0 5.28888e-20 -0 -2.64444e-20)
(-7.85519e-20 -0.0222611 -0 1.57104e-19 -0 -7.85519e-20)
(1.41587e-20 -0.0205456 -0 -2.83174e-20 -0 1.41587e-20)
(-1.11333e-20 -0.0199526 -0 2.22667e-20 -0 -1.11333e-20)
(-3.80397e-20 -0.018004 -0 7.60793e-20 -0 -3.80397e-20)
(8.85727e-20 -0.0168786 -0 -1.77145e-19 -0 8.85727e-20)
(-9.16924e-20 -0.0165412 -0 1.83385e-19 -0 -9.16924e-20)
(2.80665e-20 -0.0148192 -0 -5.6133e-20 -0 2.80665e-20)
(2.85013e-20 -0.0152153 -0 -5.70027e-20 -0 2.85013e-20)
(-7.26788e-20 -0.0133274 -0 1.45358e-19 -0 -7.26788e-20)
(5.8537e-20 -0.0138251 -0 -1.17074e-19 -0 5.8537e-20)
(-9.12159e-21 -0.0120586 -0 1.82432e-20 -0 -9.12159e-21)
(-8.11018e-20 -0.0124084 -0 1.62204e-19 -0 -8.11018e-20)
(6.28099e-20 -0.0108144 -0 -1.2562e-19 -0 6.28099e-20)
(-1.09452e-21 -0.0109816 -0 2.18904e-21 -0 -1.09452e-21)
(-8.8598e-20 -0.00950393 -0 1.77196e-19 -0 -8.8598e-20)
(1.71759e-19 -0.00953463 -0 -3.43517e-19 -0 1.71759e-19)
(-2.14512e-19 -0.00809958 -0 4.29025e-19 -0 -2.14512e-19)
(8.5283e-21 -0.00805035 -0 -1.70566e-20 -0 8.5283e-21)
(1.43209e-19 -0.00660388 -0 -2.86418e-19 -0 1.43209e-19)
(2.7142e-22 -0.00651601 -0 -5.42839e-22 -0 2.7142e-22)
(1.60973e-19 -0.00503005 -0 -3.21945e-19 -0 1.60973e-19)
(7.26638e-20 -0.00492633 -0 -1.45328e-19 -0 7.26638e-20)
(-2.88762e-19 -0.00339238 -0 5.77525e-19 -0 -2.88762e-19)
(1.30899e-20 -0.003282 -0 -2.61798e-20 -0 1.30899e-20)
(-8.28307e-20 -0.00170268 -0 1.65661e-19 -0 -8.28307e-20)
(3.09109e-19 -0.00158709 -0 -6.18217e-19 -0 3.09109e-19)
(2.57049e-19 3.02536e-05 -0 -5.14097e-19 -0 2.57049e-19)
(2.24865e-19 0.000152928 -0 -4.4973e-19 -0 2.24865e-19)
(1.57409e-19 0.00179995 -0 -3.14819e-19 -0 1.57409e-19)
(-6.99837e-20 0.0019324 -0 1.39967e-19 -0 -6.99837e-20)
(9.82805e-21 0.00360145 -0 -1.96561e-20 -0 9.82805e-21)
(-4.22394e-20 0.00374599 -0 8.44788e-20 -0 -4.22394e-20)
(-9.17999e-20 0.00543062 -0 1.836e-19 -0 -9.17999e-20)
(-1.26586e-19 0.00558881 -0 2.53173e-19 -0 -1.26586e-19)
(-1.78477e-19 0.00728371 -0 3.56954e-19 -0 -1.78477e-19)
(-2.36707e-19 0.00745638 -0 4.73414e-19 -0 -2.36707e-19)
(-2.51378e-19 0.00915702 -0 5.02756e-19 -0 -2.51378e-19)
(-1.98279e-19 0.00934443 -0 3.96559e-19 -0 -1.98279e-19)
(-2.04242e-19 0.0110469 -0 4.08484e-19 -0 -2.04242e-19)
(-8.75745e-20 0.0112489 -0 1.75149e-19 -0 -8.75745e-20)
(6.32864e-20 0.0129495 -0 -1.26573e-19 -0 6.32864e-20)
(1.85822e-20 0.0131658 -0 -3.71643e-20 -0 1.85822e-20)
(3.24738e-19 0.0148611 -0 -6.49477e-19 -0 3.24738e-19)
(1.2648e-19 0.0150911 -0 -2.5296e-19 -0 1.2648e-19)
(3.71671e-19 0.0167777 -0 -7.43341e-19 -0 3.71671e-19)
(2.38335e-19 0.0170209 -0 -4.7667e-19 -0 2.38335e-19)
(2.23387e-19 0.0186955 -0 -4.46773e-19 -0 2.23387e-19)
(3.56856e-19 0.0189512 -0 -7.13712e-19 -0 3.56856e-19)
(-1.5242e-20 0.0206105 -0 3.04839e-20 -0 -1.5242e-20)
(3.75499e-19 0.0208782 -0 -7.50998e-19 -0 3.75499e-19)
(-1.37944e-19 0.0225187 -0 2.75888e-19 -0 -1.37944e-19)
(1.62718e-19 0.022798 -0 -3.25435e-19 -0 1.62718e-19)
(-1.69272e-19 0.0244164 -0 3.38544e-19 -0 -1.69272e-19)
(-4.75411e-20 0.0247066 -0 9.50823e-20 -0 -4.75411e-20)
(-1.98341e-19 0.0262995 -0 3.96681e-19 -0 -1.98341e-19)
(-1.44872e-19 0.0266002 -0 2.89744e-19 -0 -1.44872e-19)
(-1.97197e-19 0.0281642 -0 3.94394e-19 -0 -1.97197e-19)
(-2.68788e-19 0.0284751 -0 5.37576e-19 -0 -2.68788e-19)
(-1.78251e-19 0.0300068 -0 3.56501e-19 -0 -1.78251e-19)
(-2.74632e-19 0.0303274 -0 5.49263e-19 -0 -2.74632e-19)
(-1.49433e-19 0.0318235 -0 2.98865e-19 -0 -1.49433e-19)
(-1.59397e-19 0.0321535 -0 3.18793e-19 -0 -1.59397e-19)
(-1.23236e-19 0.0336105 -0 2.46471e-19 -0 -1.23236e-19)
(-5.06085e-20 0.0339497 -0 1.01217e-19 -0 -5.06085e-20)
(-9.86804e-20 0.0353644 -0 1.97361e-19 -0 -9.86804e-20)
(-8.21014e-20 0.0357125 -0 1.64203e-19 -0 -8.21014e-20)
(-7.21211e-20 0.0370816 -0 1.44242e-19 -0 -7.21211e-20)
(-2.65931e-19 0.0374384 -0 5.31862e-19 -0 -2.65931e-19)
(-4.98125e-20 0.0387586 -0 9.9625e-20 -0 -4.98125e-20)
(-3.14221e-19 0.0391238 -0 6.28443e-19 -0 -3.14221e-19)
(-2.7602e-20 0.040392 -0 5.52041e-20 -0 -2.7602e-20)
(5.87387e-19 0.0407656 -0 -1.17477e-18 -0 5.87387e-19)
(3.42042e-23 0.0419787 -0 -6.84084e-23 -0 3.42042e-23)
(1.48506e-18 0.0423604 -0 -2.97012e-18 -0 1.48506e-18)
(3.37719e-20 0.0435154 -0 -6.75438e-20 -0 3.37719e-20)
(7.24929e-19 0.0439051 -0 -1.44986e-18 -0 7.24929e-19)
(6.98656e-20 0.0449991 -0 -1.39731e-19 -0 6.98656e-20)
(-5.13291e-20 0.0453967 -0 1.02658e-19 -0 -5.13291e-20)
(1.16926e-19 0.046427 -0 -2.33852e-19 -0 1.16926e-19)
(-7.05981e-21 0.0468322 -0 1.41196e-20 -0 -7.05981e-21)
(1.772e-19 0.047796 -0 -3.544e-19 -0 1.772e-19)
(2.75637e-20 0.0482087 -0 -5.51275e-20 -0 2.75637e-20)
(2.44271e-19 0.0491037 -0 -4.88543e-19 -0 2.44271e-19)
(5.67514e-20 0.0495237 -0 -1.13503e-19 -0 5.67514e-20)
(-5.75992e-19 0.0503473 -0 1.15198e-18 -0 -5.75992e-19)
(8.16996e-20 0.0507744 -0 -1.63399e-19 -0 8.16996e-20)
(-1.38731e-18 0.0515245 -0 2.77462e-18 -0 -1.38731e-18)
(9.88767e-20 0.0519585 -0 -1.97753e-19 -0 9.88767e-20)
(-5.22549e-19 0.052633 -0 1.0451e-18 -0 -5.22549e-19)
(1.10349e-19 0.0530737 -0 -2.20699e-19 -0 1.10349e-19)
(1.94444e-20 0.0536705 -0 -3.88889e-20 -0 1.94444e-20)
(1.18899e-19 0.0541176 -0 -2.37797e-19 -0 1.18899e-19)
(5.87819e-19 0.054635 -0 -1.17564e-18 -0 5.87819e-19)
(1.24194e-19 0.0550883 -0 -2.48387e-19 -0 1.24194e-19)
(1.50923e-18 0.0555247 -0 -3.01847e-18 -0 1.50923e-18)
(-8.29087e-19 0.0559839 -0 1.65817e-18 -0 -8.29087e-19)
(6.91501e-19 0.0563378 -0 -1.383e-18 -0 6.91501e-19)
(-1.79495e-18 0.0568026 -0 3.58991e-18 -0 -1.79495e-18)
(-1.45158e-19 0.0570727 -0 2.90316e-19 -0 -1.45158e-19)
(-8.43768e-19 0.0575428 -0 1.68754e-18 -0 -8.43768e-19)
(-3.50303e-20 0.057728 -0 7.00606e-20 -0 -3.50303e-20)
(1.13739e-19 0.058203 -0 -2.27478e-19 -0 1.13739e-19)
(7.84067e-20 0.0583022 -0 -1.56813e-19 -0 7.84067e-20)
(1.14203e-19 0.0587819 -0 -2.28406e-19 -0 1.14203e-19)
(1.28045e-20 0.0587944 -0 -2.5609e-20 -0 1.28045e-20)
(1.1492e-19 0.0592782 -0 -2.2984e-19 -0 1.1492e-19)
(-2.48054e-19 0.0592034 -0 4.96107e-19 -0 -2.48054e-19)
(1.07895e-19 0.0596911 -0 -2.15791e-19 -0 1.07895e-19)
(-3.33001e-19 0.0595283 -0 6.66001e-19 -0 -3.33001e-19)
(1.0205e-19 0.0600195 -0 -2.041e-19 -0 1.0205e-19)
(-2.55975e-19 0.0597686 -0 5.11949e-19 -0 -2.55975e-19)
(9.70959e-20 0.0602628 -0 -1.94192e-19 -0 9.70959e-20)
(-2.02042e-19 0.0599236 -0 4.04084e-19 -0 -2.02042e-19)
(9.25705e-20 0.0604204 -0 -1.85141e-19 -0 9.25705e-20)
(-1.61881e-19 0.0599929 -0 3.23761e-19 -0 -1.61881e-19)
(8.84703e-20 0.0604919 -0 -1.76941e-19 -0 8.84703e-20)
(-1.43217e-19 0.0599762 -0 2.86435e-19 -0 -1.43217e-19)
(8.47673e-20 0.060477 -0 -1.69535e-19 -0 8.47673e-20)
(-1.36273e-19 0.0598734 -0 2.72546e-19 -0 -1.36273e-19)
(8.29945e-20 0.0603755 -0 -1.65989e-19 -0 8.29945e-20)
(-1.39271e-19 0.0596846 -0 2.78543e-19 -0 -1.39271e-19)
(8.1809e-20 0.0601876 -0 -1.63618e-19 -0 8.1809e-20)
(-1.58863e-19 0.0594099 -0 3.17726e-19 -0 -1.58863e-19)
(8.05152e-20 0.0599134 -0 -1.6103e-19 -0 8.05152e-20)
(-9.17878e-20 0.0590497 -0 1.83576e-19 -0 -9.17878e-20)
(7.98288e-20 0.0595531 -0 -1.59658e-19 -0 7.98288e-20)
(7.35156e-20 0.0586044 -0 -1.47031e-19 -0 7.35156e-20)
(8.03265e-20 0.0591073 -0 -1.60653e-19 -0 8.03265e-20)
(1.3283e-19 0.0580747 -0 -2.65661e-19 -0 1.3283e-19)
(8.16326e-20 0.0585766 -0 -1.63265e-19 -0 8.16326e-20)
(1.03082e-19 0.0574612 -0 -2.06163e-19 -0 1.03082e-19)
(8.21589e-20 0.0579617 -0 -1.64318e-19 -0 8.21589e-20)
(8.09589e-20 0.0567649 -0 -1.61918e-19 -0 8.09589e-20)
(8.30825e-20 0.0572635 -0 -1.66165e-19 -0 8.30825e-20)
(5.60009e-20 0.0559868 -0 -1.12002e-19 -0 5.60009e-20)
(-4.55877e-19 0.0564831 -0 9.11754e-19 -0 -4.55877e-19)
(2.95074e-20 0.0551281 -0 -5.90148e-20 -0 2.95074e-20)
(-9.96464e-19 0.0556216 -0 1.99293e-18 -0 -9.96464e-19)
(-9.56864e-22 0.0541899 -0 1.91373e-21 -0 -9.56864e-22)
(-4.53951e-19 0.0546802 -0 9.07902e-19 -0 -4.53951e-19)
(-2.40291e-20 0.0531739 -0 4.80581e-20 -0 -2.40291e-20)
(9.02733e-20 0.0536605 -0 -1.80547e-19 -0 9.02733e-20)
(-4.14565e-20 0.0520814 -0 8.2913e-20 -0 -4.14565e-20)
(9.24859e-20 0.052564 -0 -1.84972e-19 -0 9.24859e-20)
(-5.70259e-20 0.0509142 -0 1.14052e-19 -0 -5.70259e-20)
(9.47277e-20 0.0513922 -0 -1.89455e-19 -0 9.47277e-20)
(-7.17209e-20 0.049674 -0 1.43442e-19 -0 -7.17209e-20)
(9.64009e-20 0.0501471 -0 -1.92802e-19 -0 9.64009e-20)
(-8.24502e-20 0.0483626 -0 1.649e-19 -0 -8.24502e-20)
(9.77095e-20 0.0488304 -0 -1.95419e-19 -0 9.77095e-20)
(-8.64149e-20 0.0469822 -0 1.7283e-19 -0 -8.64149e-20)
(9.94262e-20 0.0474442 -0 -1.98852e-19 -0 9.94262e-20)
(-8.79083e-20 0.0455348 -0 1.75817e-19 -0 -8.79083e-20)
(1.0078e-19 0.0459907 -0 -2.0156e-19 -0 1.0078e-19)
(-9.10974e-20 0.0440229 -0 1.82195e-19 -0 -9.10974e-20)
(1.01432e-19 0.0444725 -0 -2.02864e-19 -0 1.01432e-19)
(-9.24642e-20 0.0424497 -0 1.84928e-19 -0 -9.24642e-20)
(1.01523e-19 0.0428925 -0 -2.03047e-19 -0 1.01523e-19)
(-9.25546e-20 0.0408192 -0 1.85109e-19 -0 -9.25546e-20)
(1.01688e-19 0.0412549 -0 -2.03377e-19 -0 1.01688e-19)
(-9.14765e-20 0.0391371 -0 1.82953e-19 -0 -9.14765e-20)
(1.01326e-19 0.0395655 -0 -2.02652e-19 -0 1.01326e-19)
(-9.37505e-20 0.0374126 -0 1.87501e-19 -0 -9.37505e-20)
(1.00726e-19 0.0378335 -0 -2.01452e-19 -0 1.00726e-19)
(-9.55594e-20 0.03566 -0 1.91119e-19 -0 -9.55594e-20)
(9.95015e-20 0.0360732 -0 -1.99003e-19 -0 9.95015e-20)
(-9.30596e-20 0.0339016 -0 1.86119e-19 -0 -9.30596e-20)
(9.81291e-20 0.0343072 -0 -1.96258e-19 -0 9.81291e-20)
(-9.03308e-20 0.0321718 -0 1.80662e-19 -0 -9.03308e-20)
(9.60802e-20 0.03257 -0 -1.9216e-19 -0 9.60802e-20)
(-8.69444e-20 0.0304374 -0 1.73889e-19 -0 -8.69444e-20)
(9.28439e-20 0.0308287 -0 -1.85688e-19 -0 9.28439e-20)
(-8.22778e-20 0.0287108 -0 1.64556e-19 -0 -8.22778e-20)
(8.6194e-20 0.0290959 -0 -1.72388e-19 -0 8.6194e-20)
(-6.92299e-20 0.0137809 -0 1.3846e-19 -0 -6.92299e-20)
(7.09467e-20 0.0139721 -0 -1.41893e-19 -0 7.09467e-20)
)
;

boundaryField
{
    inlet
    {
        type            cyclic;
    }
    outlet
    {
        type            cyclic;
    }
    bottom
    {
        type            symmetry;
    }
    top
    {
        type            calculated;
        value           nonuniform List<symmTensor> 2((-7.19516e-21 -0.0194575 -0 1.43903e-20 -0 -7.19516e-21) (1.00657e-20 -0.0210139 -0 -2.01315e-20 -0 1.00657e-20));
    }
    frontAndBack
    {
        type            empty;
    }
}


// ************************************************************************* //
