/*--------------------------------*- C++ -*----------------------------------*\
  =========                 |
  \\      /  F ield         | OpenFOAM: The Open Source CFD Toolbox
   \\    /   O peration     | Website:  https://openfoam.org
    \\  /    A nd           | Version:  7
     \\/     M anipulation  |
\*---------------------------------------------------------------------------*/
FoamFile
{
    version     2.0;
    format      ascii;
    class       volScalarField;
    location    "500";
    object      k;
}
// * * * * * * * * * * * * * * * * * * * * * * * * * * * * * * * * * * * * * //

dimensions      [0 2 -2 0 0 0 0];

internalField   nonuniform List<scalar> 
180
(
0.0781499
0.124008
0.0640899
0.0748445
0.067201
0.0723631
0.0739427
0.0765156
0.0820733
0.0832309
0.0904041
0.090891
0.0985118
0.0987444
0.106308
0.106483
0.113806
0.113999
0.121041
0.121273
0.128048
0.128318
0.134854
0.135156
0.14148
0.14181
0.147944
0.1483
0.154261
0.154641
0.160444
0.160848
0.166502
0.16693
0.172444
0.172897
0.178279
0.178757
0.184012
0.184516
0.189649
0.190178
0.195194
0.195749
0.200649
0.20123
0.206019
0.206625
0.211304
0.211936
0.216506
0.217163
0.221626
0.222308
0.226664
0.227371
0.231621
0.232352
0.236496
0.237251
0.241288
0.242067
0.245998
0.246799
0.250623
0.251447
0.255162
0.256009
0.259614
0.260483
0.263978
0.264869
0.268253
0.269165
0.272435
0.273368
0.276525
0.277478
0.280519
0.281493
0.284417
0.285411
0.288217
0.28923
0.291917
0.292949
0.295516
0.296567
0.299013
0.300082
0.302405
0.303492
0.305693
0.306797
0.308874
0.309996
0.311948
0.313087
0.314915
0.316069
0.317773
0.318943
0.320522
0.321708
0.323163
0.324363
0.325694
0.326909
0.328117
0.329345
0.330431
0.331672
0.332637
0.333891
0.334736
0.336002
0.336729
0.338006
0.338616
0.339904
0.3404
0.341698
0.342081
0.343389
0.343662
0.344979
0.345144
0.346469
0.346529
0.347863
0.347821
0.349162
0.34902
0.350368
0.35013
0.351484
0.351153
0.352513
0.352092
0.353458
0.35295
0.354321
0.35373
0.355105
0.354436
0.355815
0.355069
0.356452
0.355635
0.35702
0.356135
0.357523
0.356574
0.357964
0.356954
0.358346
0.357279
0.358672
0.357552
0.358947
0.357777
0.359172
0.357957
0.359353
0.358095
0.35949
0.358193
0.359589
0.358256
0.359651
0.358285
0.35968
0.358283
0.359678
0.358252
0.359645
0.358192
0.359585
0.358104
0.359495
)
;

boundaryField
{
    inlet
    {
        type            cyclic;
    }
    outlet
    {
        type            cyclic;
    }
    bottom
    {
        type            symmetry;
    }
    top
    {
        type            kqRWallFunction;
        value           nonuniform List<scalar> 2(0.0781499 0.124008);
    }
    frontAndBack
    {
        type            empty;
    }
}


// ************************************************************************* //
