/*--------------------------------*- C++ -*----------------------------------*\
  =========                 |
  \\      /  F ield         | OpenFOAM: The Open Source CFD Toolbox
   \\    /   O peration     | Website:  https://openfoam.org
    \\  /    A nd           | Version:  7
     \\/     M anipulation  |
\*---------------------------------------------------------------------------*/
FoamFile
{
    version     2.0;
    format      ascii;
    class       volScalarField;
    location    "500";
    object      nut;
}
// * * * * * * * * * * * * * * * * * * * * * * * * * * * * * * * * * * * * * //

dimensions      [0 2 -1 0 0 0 0];

internalField   nonuniform List<scalar> 
180
(
2.02834e-05
3.08189e-05
6.2471e-05
7.87613e-05
0.000145801
0.000150733
0.000267629
0.000256017
0.000398693
0.000391025
0.000550365
0.000549838
0.000721541
0.000726416
0.000909267
0.000916483
0.00110958
0.00111686
0.00131852
0.00132486
0.00153277
0.00153806
0.00174975
0.00175434
0.00196761
0.0019719
0.002185
0.00218931
0.0024009
0.00240544
0.00261452
0.00261939
0.00282523
0.00283048
0.00303251
0.00303816
0.00323594
0.00324198
0.00343517
0.0034416
0.00362993
0.00363676
0.00382001
0.00382724
0.00400525
0.00401289
0.00418554
0.00419359
0.00436082
0.00436928
0.00453104
0.00453992
0.00469621
0.00470551
0.00485634
0.00486606
0.00501148
0.00502161
0.00516168
0.00517223
0.00530703
0.00531797
0.0054476
0.00545893
0.0055835
0.0055952
0.00571481
0.00572688
0.00584166
0.00585407
0.00596415
0.0059769
0.0060824
0.00609546
0.00619652
0.00620988
0.00630664
0.00632028
0.00641286
0.00642677
0.00651531
0.00652948
0.0066141
0.00662851
0.00670935
0.00672398
0.00680116
0.00681601
0.00688965
0.0069047
0.00697492
0.00699016
0.00705707
0.00707249
0.0071362
0.00715179
0.00721241
0.00722817
0.0072858
0.00730171
0.00735645
0.00737251
0.00742445
0.00744065
0.00748988
0.00750622
0.00755282
0.00756928
0.00761334
0.00762993
0.00767153
0.00768823
0.00772744
0.00774426
0.00778114
0.00779807
0.0078327
0.00784973
0.00788216
0.0078993
0.0079296
0.00794683
0.00797506
0.00799237
0.00801858
0.00803598
0.00806022
0.0080777
0.00810001
0.00811758
0.008138
0.00815564
0.00817423
0.00819194
0.00820872
0.0082265
0.00824152
0.00825936
0.00827264
0.00829055
0.00830212
0.00832009
0.00832999
0.008348
0.00835625
0.00837432
0.00838094
0.00839905
0.00840407
0.00842223
0.00842565
0.00844385
0.00844571
0.00846395
0.00846425
0.00848252
0.00848129
0.00849959
0.00849683
0.00851516
0.00851089
0.00852925
0.00852347
0.00854184
0.00853457
0.00855297
0.0085442
0.00856262
0.00855237
0.0085708
0.00855906
0.0085775
0.00856428
0.00858272
0.00856799
0.00858644
0.00857019
0.00858863
0.00857085
0.0085893
)
;

boundaryField
{
    inlet
    {
        type            cyclic;
    }
    outlet
    {
        type            cyclic;
    }
    bottom
    {
        type            symmetry;
    }
    top
    {
        type            nutkWallFunction;
        Cmu             0.09;
        kappa           0.41;
        E               9.8;
        value           uniform 0;
    }
    frontAndBack
    {
        type            empty;
    }
}


// ************************************************************************* //
