/*--------------------------------*- C++ -*----------------------------------*\
  =========                 |
  \\      /  F ield         | OpenFOAM: The Open Source CFD Toolbox
   \\    /   O peration     | Website:  https://openfoam.org
    \\  /    A nd           | Version:  7
     \\/     M anipulation  |
\*---------------------------------------------------------------------------*/
FoamFile
{
    version     2.0;
    format      ascii;
    class       volScalarField;
    location    "500";
    object      omega;
}
// * * * * * * * * * * * * * * * * * * * * * * * * * * * * * * * * * * * * * //

dimensions      [0 0 -1 0 0 0 0];

internalField   nonuniform List<scalar> 
180
(
2592
2592
839.822
950.271
425.406
480.073
276.288
298.869
205.856
212.853
164.262
165.305
136.53
135.934
116.916
116.186
102.567
102.07
91.8008
91.536
83.5408
83.4282
77.0704
77.0413
71.9043
71.9157
67.7089
67.7383
64.2514
64.2883
61.3663
61.4065
58.9338
58.9758
56.8652
56.9087
55.0935
55.1384
53.5671
53.6134
52.2459
52.2934
51.0977
51.1462
50.0966
50.146
49.2215
49.2717
48.4551
48.5058
47.7828
47.8341
47.1925
47.2442
46.6739
46.7259
46.2181
46.2704
45.8176
45.8702
45.4658
45.5187
45.157
45.2102
44.8863
44.9398
44.6492
44.703
44.4419
44.4961
44.2609
44.3155
44.1031
44.1582
43.9658
44.0215
43.8466
43.9028
43.7432
43.8
43.6536
43.7111
43.5761
43.6343
43.509
43.5679
43.4508
43.5104
43.4003
43.4605
43.3561
43.4171
43.3172
43.379
43.2827
43.3452
43.2516
43.3148
43.2231
43.287
43.1965
43.2611
43.1712
43.2365
43.1466
43.2126
43.1222
43.1888
43.0976
43.1648
43.0724
43.1402
43.0463
43.1146
43.0189
43.0878
42.9901
43.0595
42.9598
43.0296
42.9277
42.998
42.8939
42.9646
42.8582
42.9293
42.8207
42.8921
42.7813
42.8531
42.7403
42.8123
42.6976
42.7698
42.6533
42.7258
42.6077
42.6804
42.561
42.6338
42.5132
42.5862
42.4647
42.5377
42.4156
42.4888
42.3663
42.4395
42.317
42.3902
42.268
42.3412
42.2195
42.2928
42.1719
42.2452
42.1256
42.1988
42.0807
42.1538
42.0376
42.1107
41.9966
42.0697
41.9581
42.0311
41.9224
41.9952
41.8897
41.9624
41.8603
41.933
41.8346
41.9072
41.8128
41.8853
41.7951
41.8675
41.7816
41.8539
)
;

boundaryField
{
    inlet
    {
        type            cyclic;
    }
    outlet
    {
        type            cyclic;
    }
    bottom
    {
        type            symmetry;
    }
    top
    {
        beta1           0.075;
        blended         0;
        type            omegaWallFunction;
        value           uniform 2592;
    }
    frontAndBack
    {
        type            empty;
    }
}


// ************************************************************************* //
