/*--------------------------------*- C++ -*----------------------------------*\
  =========                 |
  \\      /  F ield         | OpenFOAM: The Open Source CFD Toolbox
   \\    /   O peration     | Website:  https://openfoam.org
    \\  /    A nd           | Version:  7
     \\/     M anipulation  |
\*---------------------------------------------------------------------------*/
FoamFile
{
    version     2.0;
    format      ascii;
    class       volScalarField;
    location    "500";
    object      p;
}
// * * * * * * * * * * * * * * * * * * * * * * * * * * * * * * * * * * * * * //

dimensions      [0 2 -2 0 0 0 0];

internalField   nonuniform List<scalar> 
180
(
-1.94374e-20
-1.06587e-15
-3.19922e-20
-1.06586e-15
-1.873e-20
-1.06585e-15
-9.07161e-20
-1.06584e-15
-1.09501e-19
-1.06577e-15
-2.0045e-19
-1.06562e-15
-4.22101e-19
-1.06553e-15
-7.05163e-19
-1.06529e-15
-1.04872e-18
-1.065e-15
-1.45518e-18
-1.06467e-15
-1.91947e-18
-1.06428e-15
-2.15919e-18
-1.06415e-15
-2.09072e-18
-1.064e-15
-1.64413e-18
-1.06458e-15
-3.53415e-18
-1.06322e-15
-3.40754e-18
-1.06306e-15
-3.72831e-18
-1.06338e-15
-4.06661e-18
-1.06322e-15
-4.41304e-18
-1.0636e-15
-4.77485e-18
-1.06403e-15
-5.14316e-18
-1.06387e-15
-5.52424e-18
-1.06372e-15
-5.22897e-18
-1.06357e-15
-4.91255e-18
-1.06343e-15
-5.31337e-18
-1.06328e-15
-5.72223e-18
-1.06316e-15
-6.93743e-18
-1.06302e-15
-7.35538e-18
-1.06375e-15
-7.77567e-18
-1.06448e-15
-8.19956e-18
-1.06439e-15
-8.62521e-18
-1.0652e-15
-9.05232e-18
-1.06513e-15
-9.4807e-18
-1.06504e-15
-9.90854e-18
-1.06499e-15
-1.03371e-17
-1.06493e-15
-1.07632e-17
-1.06593e-15
-1.11896e-17
-1.06589e-15
-1.16126e-17
-1.06588e-15
-1.20351e-17
-1.06587e-15
-1.24541e-17
-1.06699e-15
-1.28704e-17
-1.06813e-15
-1.32827e-17
-1.06932e-15
-1.36901e-17
-1.07051e-15
-1.40928e-17
-1.07176e-15
-1.44898e-17
-1.07301e-15
-1.48807e-17
-1.07432e-15
-1.40465e-17
-1.07562e-15
-1.44252e-17
-1.07699e-15
-1.48005e-17
-1.07835e-15
-1.39062e-17
-1.07976e-15
-1.42699e-17
-1.08118e-15
-1.46239e-17
-1.08136e-15
-1.49747e-17
-1.08153e-15
-1.53155e-17
-1.08174e-15
-1.56524e-17
-1.08194e-15
-1.73079e-17
-1.08218e-15
-1.76298e-17
-1.08241e-15
-1.7941e-17
-1.08268e-15
-1.8247e-17
-1.08295e-15
-1.85421e-17
-1.08325e-15
-1.88311e-17
-1.08354e-15
-1.91094e-17
-1.08387e-15
-1.9381e-17
-1.0842e-15
-1.96416e-17
-1.08456e-15
-1.9895e-17
-1.08492e-15
-1.94317e-17
-1.08532e-15
-1.96665e-17
-1.08571e-15
-1.98904e-17
-1.08614e-15
-2.01061e-17
-1.08657e-15
-2.0311e-17
-1.08702e-15
-2.05072e-17
-1.08748e-15
-2.06925e-17
-1.08724e-15
-2.08689e-17
-1.08701e-15
-2.10345e-17
-1.0868e-15
-2.11908e-17
-1.08659e-15
-2.13364e-17
-1.08641e-15
-2.14723e-17
-1.08623e-15
-2.15976e-17
-1.08607e-15
-2.17131e-17
-1.08593e-15
-2.18179e-17
-1.0858e-15
-2.19127e-17
-1.08568e-15
-2.19969e-17
-1.08557e-15
-2.20708e-17
-1.08548e-15
-2.21343e-17
-1.08541e-15
-2.21874e-17
-1.08534e-15
-2.223e-17
-1.08529e-15
-2.22622e-17
-1.08525e-15
-2.22839e-17
-1.08523e-15
-2.22951e-17
-1.08522e-15
-2.22966e-17
-1.08521e-15
)
;

boundaryField
{
    inlet
    {
        type            cyclic;
    }
    outlet
    {
        type            cyclic;
    }
    bottom
    {
        type            symmetry;
    }
    top
    {
        type            zeroGradient;
    }
    frontAndBack
    {
        type            empty;
    }
}


// ************************************************************************* //
