/*--------------------------------*- C++ -*----------------------------------*\
  =========                 |
  \\      /  F ield         | OpenFOAM: The Open Source CFD Toolbox
   \\    /   O peration     | Website:  https://openfoam.org
    \\  /    A nd           | Version:  7
     \\/     M anipulation  |
\*---------------------------------------------------------------------------*/
FoamFile
{
    version     2.0;
    format      ascii;
    class       surfaceScalarField;
    location    "500";
    object      phi;
}
// * * * * * * * * * * * * * * * * * * * * * * * * * * * * * * * * * * * * * //

dimensions      [0 3 -1 0 0 0 0];

internalField   nonuniform List<scalar> 
268
(
0.00125913
4.81741e-19
2.34719e-19
0.00177008
6.03091e-19
-1.65246e-19
0.00199213
3.99655e-19
-1.10534e-19
0.00210097
1.01638e-19
-3.18241e-20
0.00216293
5.48261e-19
-5.78892e-19
0.00220214
4.99295e-19
-2.22483e-19
0.00222872
4.16452e-19
-2.67165e-19
0.00224756
4.01136e-19
-3.32262e-19
0.00226128
4.48732e-19
-4.28998e-19
0.0022714
5.02586e-19
-1.42683e-19
0.00227885
1.83345e-19
-1.98612e-19
0.00228424
3.3637e-19
-3.40002e-19
0.00228799
5.34221e-19
-7.52254e-21
0.00229041
2.22064e-19
-3.63533e-19
0.00229171
2.04073e-19
4.9725e-20
0.00229207
3.54409e-19
2.21126e-20
0.0022916
3.93571e-19
-3.30385e-20
0.00229043
3.93417e-19
-2.11625e-20
0.00228861
3.72405e-19
-4.44901e-20
0.00228623
3.27001e-19
-1.32004e-19
0.00228332
2.82323e-19
-1.57549e-19
0.00227995
2.14761e-19
-1.86293e-19
0.00227613
2.28915e-19
-1.7242e-19
0.00227192
3.1356e-19
-1.578e-19
0.00226732
3.64097e-19
-1.01657e-19
0.00226237
4.3652e-19
-5.82575e-20
0.00225709
4.02607e-19
4.07975e-20
0.0022515
3.89003e-19
5.75792e-20
0.0022456
3.61201e-19
2.87932e-20
0.00223943
3.29125e-19
3.70332e-20
0.00223298
2.9817e-19
-2.59033e-20
0.00222629
2.7115e-19
-6.80533e-20
0.00221935
2.48562e-19
-8.11407e-20
0.00221218
2.3107e-19
-1.09718e-19
0.00220479
2.16444e-19
-7.89063e-20
0.00219719
2.06997e-19
-1.58058e-19
0.0021894
1.99571e-19
-1.80343e-19
0.00218143
1.96401e-19
-2.20864e-19
0.00217328
1.96084e-19
2.01356e-19
0.00216496
2.00619e-19
1.77862e-19
0.00215649
2.09575e-19
1.81251e-19
0.00214787
2.241e-19
1.70274e-19
0.00213913
2.46247e-19
1.83935e-19
0.00213025
2.76066e-19
1.80508e-19
0.00212127
3.15379e-19
2.00761e-19
0.00211218
-7.7409e-20
2.02053e-19
0.00210299
-1.0407e-20
2.25475e-19
0.00209373
-7.17353e-21
2.29075e-19
0.00208439
-7.07599e-20
2.53324e-19
0.00207499
3.30274e-19
2.57987e-19
0.00206554
2.99484e-19
-1.51997e-19
0.00205605
2.8437e-19
-1.47565e-19
0.00204653
2.79343e-19
-1.26268e-19
0.00203699
2.78302e-19
-1.22085e-19
0.00202744
3.1093e-19
-1.01507e-19
0.00201789
2.52811e-19
-9.7438e-20
0.00200835
2.26705e-19
-7.92702e-20
0.00199883
2.0023e-19
-7.5782e-20
0.00198935
1.7791e-19
-5.94125e-20
0.00197991
1.61598e-19
-5.63063e-20
0.00197052
1.45848e-19
-4.15107e-20
0.0019612
1.32295e-19
-3.86084e-20
0.00195195
1.17216e-19
-2.45455e-20
0.00194279
1.06774e-19
-2.15982e-20
0.00193372
8.06633e-20
-8.28959e-21
0.00192475
1.04799e-19
-5.05049e-21
0.0019159
1.12508e-19
8.00194e-21
0.00190717
1.23364e-19
1.18663e-20
0.00189858
1.31174e-19
2.43651e-20
0.00189013
1.37146e-19
2.90125e-20
0.00188183
1.39795e-19
-1.75473e-19
0.0018737
1.39973e-19
-1.69903e-19
0.00186573
1.37338e-19
-1.57977e-19
0.00185795
1.33438e-19
-1.51508e-19
0.00185035
1.27597e-19
-1.39711e-19
0.00184295
1.20676e-19
-1.32334e-19
0.00183576
1.12412e-19
-1.20882e-19
0.00182878
1.04032e-19
-1.12742e-19
0.00182202
9.53065e-20
-1.01467e-19
0.00181549
8.64599e-20
-9.27033e-20
0.00180919
7.73577e-20
-8.18709e-20
0.00180313
6.83636e-20
-7.26993e-20
0.00179733
5.94105e-20
-6.22694e-20
0.00179178
5.02976e-20
-5.28814e-20
0.00178648
4.0986e-20
-4.29409e-20
0.00178144
3.19416e-20
-3.35882e-20
0.00177666
2.316e-20
-2.42059e-20
0.00177213
1.47095e-20
-1.51541e-20
0.00176786
6.63856e-21
-6.70957e-21
0.00176381
)
;

boundaryField
{
    inlet
    {
        type            cyclic;
        value           nonuniform List<scalar> 
90
(
-0.00125913
-0.00177008
-0.00199213
-0.00210097
-0.00216293
-0.00220214
-0.00222872
-0.00224756
-0.00226128
-0.0022714
-0.00227885
-0.00228424
-0.00228799
-0.00229041
-0.00229171
-0.00229207
-0.0022916
-0.00229043
-0.00228861
-0.00228623
-0.00228332
-0.00227995
-0.00227613
-0.00227192
-0.00226732
-0.00226237
-0.00225709
-0.0022515
-0.0022456
-0.00223943
-0.00223298
-0.00222629
-0.00221935
-0.00221218
-0.00220479
-0.00219719
-0.0021894
-0.00218143
-0.00217328
-0.00216496
-0.00215649
-0.00214787
-0.00213913
-0.00213025
-0.00212127
-0.00211218
-0.00210299
-0.00209373
-0.00208439
-0.00207499
-0.00206554
-0.00205605
-0.00204653
-0.00203699
-0.00202744
-0.00201789
-0.00200835
-0.00199883
-0.00198935
-0.00197991
-0.00197052
-0.0019612
-0.00195195
-0.00194279
-0.00193372
-0.00192475
-0.0019159
-0.00190717
-0.00189858
-0.00189013
-0.00188183
-0.0018737
-0.00186573
-0.00185795
-0.00185035
-0.00184295
-0.00183576
-0.00182878
-0.00182202
-0.00181549
-0.00180919
-0.00180313
-0.00179733
-0.00179178
-0.00178648
-0.00178144
-0.00177666
-0.00177213
-0.00176786
-0.00176381
)
;
    }
    outlet
    {
        type            cyclic;
        value           nonuniform List<scalar> 
90
(
0.00125913
0.00177008
0.00199213
0.00210097
0.00216293
0.00220214
0.00222872
0.00224756
0.00226128
0.0022714
0.00227885
0.00228424
0.00228799
0.00229041
0.00229171
0.00229207
0.0022916
0.00229043
0.00228861
0.00228623
0.00228332
0.00227995
0.00227613
0.00227192
0.00226732
0.00226237
0.00225709
0.0022515
0.0022456
0.00223943
0.00223298
0.00222629
0.00221935
0.00221218
0.00220479
0.00219719
0.0021894
0.00218143
0.00217328
0.00216496
0.00215649
0.00214787
0.00213913
0.00213025
0.00212127
0.00211218
0.00210299
0.00209373
0.00208439
0.00207499
0.00206554
0.00205605
0.00204653
0.00203699
0.00202744
0.00201789
0.00200835
0.00199883
0.00198935
0.00197991
0.00197052
0.0019612
0.00195195
0.00194279
0.00193372
0.00192475
0.0019159
0.00190717
0.00189858
0.00189013
0.00188183
0.0018737
0.00186573
0.00185795
0.00185035
0.00184295
0.00183576
0.00182878
0.00182202
0.00181549
0.00180919
0.00180313
0.00179733
0.00179178
0.00178648
0.00178144
0.00177666
0.00177213
0.00176786
0.00176381
)
;
    }
    bottom
    {
        type            symmetry;
        value           uniform 0;
    }
    top
    {
        type            calculated;
        value           uniform 0;
    }
    frontAndBack
    {
        type            empty;
        value           nonuniform 0();
    }
}


// ************************************************************************* //
