/*--------------------------------*- C++ -*----------------------------------*\
  =========                 |
  \\      /  F ield         | OpenFOAM: The Open Source CFD Toolbox
   \\    /   O peration     | Website:  https://openfoam.org
    \\  /    A nd           | Version:  7
     \\/     M anipulation  |
\*---------------------------------------------------------------------------*/
FoamFile
{
    version     2.0;
    format      ascii;
    class       volVectorField;
    location    "500";
    object      U;
}
// * * * * * * * * * * * * * * * * * * * * * * * * * * * * * * * * * * * * * //

dimensions      [0 1 -1 0 0 0 0];

internalField   nonuniform List<vector> 
180
(
(1.08097 -5.99597e-19 0)
(1.16744 8.38811e-19 0)
(1.57325 2.02607e-18 0)
(1.60448 -3.23575e-19 0)
(1.78773 8.28962e-19 0)
(1.79385 -1.5428e-19 0)
(1.89076 3.45473e-19 0)
(1.88854 -2.99479e-20 0)
(1.94743 6.95291e-19 0)
(1.94425 -6.30937e-19 0)
(1.98254 1.06788e-18 0)
(1.9802 -7.92098e-19 0)
(2.0062 8.62244e-19 0)
(2.00465 -4.61237e-19 0)
(2.02302 7.36712e-19 0)
(2.02192 -5.27135e-19 0)
(2.03535 8.29169e-19 0)
(2.03441 -7.53028e-19 0)
(2.04449 9.23716e-19 0)
(2.04357 -5.30372e-19 0)
(2.05125 6.06872e-19 0)
(2.05028 -3.24124e-19 0)
(2.05616 4.60236e-19 0)
(2.05513 -5.12009e-19 0)
(2.05959 8.78139e-19 0)
(2.05849 -3.23611e-19 0)
(2.06181 7.31561e-19 0)
(2.06065 -3.89796e-19 0)
(2.06302 4.39624e-19 0)
(2.06181 -3.03772e-19 0)
(2.06338 6.17038e-19 0)
(2.06211 3.67775e-20 0)
(2.063 7.66095e-19 0)
(2.06168 -1.87065e-20 0)
(2.06197 8.02102e-19 0)
(2.0606 -4.5349e-20 0)
(2.06037 7.76862e-19 0)
(2.05895 -6.48977e-20 0)
(2.05825 7.0783e-19 0)
(2.05678 -1.75102e-19 0)
(2.05567 6.04179e-19 0)
(2.05415 -2.93494e-19 0)
(2.05266 4.77627e-19 0)
(2.05109 -3.5634e-19 0)
(2.04926 4.26423e-19 0)
(2.04763 -3.69568e-19 0)
(2.04549 5.30165e-19 0)
(2.04381 -3.40943e-19 0)
(2.04139 6.84426e-19 0)
(2.03965 -2.69273e-19 0)
(2.03696 8.13614e-19 0)
(2.03518 -1.59532e-19 0)
(2.03224 8.48402e-19 0)
(2.0304 -7.83528e-21 0)
(2.02723 8.02818e-19 0)
(2.02534 1.05904e-19 0)
(2.02195 7.53913e-19 0)
(2.02001 1.034e-19 0)
(2.01642 6.90453e-19 0)
(2.01443 7.4409e-20 0)
(2.01065 6.26076e-19 0)
(2.0086 1.02153e-20 0)
(2.00465 5.66827e-19 0)
(2.00255 -9.37526e-20 0)
(1.99844 5.17206e-19 0)
(1.99628 -1.57174e-19 0)
(1.99201 4.77776e-19 0)
(1.9898 -1.88544e-19 0)
(1.98539 4.45451e-19 0)
(1.98313 -1.86579e-19 0)
(1.97858 4.21563e-19 0)
(1.97627 -2.35213e-19 0)
(1.9716 4.0521e-19 0)
(1.96923 -3.34642e-19 0)
(1.96444 3.9431e-19 0)
(1.96203 -4.06765e-19 0)
(1.95713 3.90386e-19 0)
(1.95467 -1.98519e-20 0)
(1.94968 3.94328e-19 0)
(1.94716 3.75223e-19 0)
(1.94208 4.07913e-19 0)
(1.93951 3.55558e-19 0)
(1.93435 4.30017e-19 0)
(1.93173 3.4906e-19 0)
(1.9265 4.66751e-19 0)
(1.92383 3.52014e-19 0)
(1.91854 5.17922e-19 0)
(1.91582 3.62704e-19 0)
(1.91048 5.86296e-19 0)
(1.90771 3.79727e-19 0)
(1.90233 2.39652e-19 0)
(1.8995 4.02088e-19 0)
(1.89409 -7.57556e-20 0)
(1.89122 4.2681e-19 0)
(1.88578 -6.81974e-21 0)
(1.88285 4.54024e-19 0)
(1.8774 -6.66857e-20 0)
(1.87442 4.82149e-19 0)
(1.86897 2.64474e-19 0)
(1.86594 5.11217e-19 0)
(1.86049 6.22859e-19 0)
(1.85741 1.04177e-19 0)
(1.85197 5.7738e-19 0)
(1.84884 -2.99235e-19 0)
(1.84343 5.57775e-19 0)
(1.84025 -2.73315e-19 0)
(1.83487 5.61811e-19 0)
(1.83163 -2.48794e-19 0)
(1.8263 5.92333e-19 0)
(1.82301 -2.23089e-19 0)
(1.81773 5.67409e-19 0)
(1.81439 -1.98654e-19 0)
(1.80917 4.84692e-19 0)
(1.80578 -1.7637e-19 0)
(1.80063 4.23951e-19 0)
(1.79719 -1.54785e-19 0)
(1.79212 3.75177e-19 0)
(1.78863 -1.34919e-19 0)
(1.78365 3.38078e-19 0)
(1.78011 -1.15526e-19 0)
(1.77523 3.06805e-19 0)
(1.77163 -9.76337e-20 0)
(1.76687 2.7795e-19 0)
(1.76322 -8.00148e-20 0)
(1.75857 2.49919e-19 0)
(1.75487 -6.30629e-20 0)
(1.75035 2.20127e-19 0)
(1.74659 -4.61225e-20 0)
(1.74221 1.84302e-19 0)
(1.7384 -2.98787e-20 0)
(1.73417 1.82401e-19 0)
(1.73031 -1.33826e-20 0)
(1.72622 2.14377e-19 0)
(1.72232 2.91175e-21 0)
(1.7184 2.36501e-19 0)
(1.71444 1.97935e-20 0)
(1.71069 2.56184e-19 0)
(1.70668 3.61617e-20 0)
(1.70311 2.69206e-19 0)
(1.69905 5.32836e-20 0)
(1.69567 2.78722e-19 0)
(1.69156 -1.46909e-19 0)
(1.68837 2.81039e-19 0)
(1.68421 -3.45457e-19 0)
(1.68123 2.78339e-19 0)
(1.67702 -3.27954e-19 0)
(1.67425 2.71465e-19 0)
(1.66999 -3.09568e-19 0)
(1.66743 2.6187e-19 0)
(1.66313 -2.91293e-19 0)
(1.6608 2.48873e-19 0)
(1.65645 -2.72121e-19 0)
(1.65435 2.3353e-19 0)
(1.64995 -2.53282e-19 0)
(1.64809 2.16371e-19 0)
(1.64364 -2.33686e-19 0)
(1.64203 1.99539e-19 0)
(1.63753 -2.14257e-19 0)
(1.63617 1.81861e-19 0)
(1.63163 -1.94209e-19 0)
(1.63053 1.63843e-19 0)
(1.62594 -1.74597e-19 0)
(1.6251 1.4569e-19 0)
(1.62047 -1.54579e-19 0)
(1.6199 1.2769e-19 0)
(1.61522 -1.34961e-19 0)
(1.61492 1.10004e-19 0)
(1.6102 -1.15135e-19 0)
(1.61018 9.11576e-20 0)
(1.60541 -9.57954e-20 0)
(1.60567 7.28024e-20 0)
(1.60086 -7.64822e-20 0)
(1.60139 5.49578e-20 0)
(1.59654 -5.77055e-20 0)
(1.59733 3.76855e-20 0)
(1.59244 -3.92103e-20 0)
(1.5935 2.1172e-20 0)
(1.58857 -2.17045e-20 0)
(1.58989 5.7212e-21 0)
(1.58492 -5.79644e-21 0)
)
;

boundaryField
{
    inlet
    {
        type            cyclic;
    }
    outlet
    {
        type            cyclic;
    }
    bottom
    {
        type            symmetry;
    }
    top
    {
        type            noSlip;
    }
    frontAndBack
    {
        type            empty;
    }
}


// ************************************************************************* //
