/*--------------------------------*- C++ -*----------------------------------*\
  =========                 |
  \\      /  F ield         | OpenFOAM: The Open Source CFD Toolbox
   \\    /   O peration     | Website:  https://openfoam.org
    \\  /    A nd           | Version:  7
     \\/     M anipulation  |
\*---------------------------------------------------------------------------*/
FoamFile
{
    version     2.0;
    format      ascii;
    class       volScalarField;
    location    "20";
    object      k;
}
// * * * * * * * * * * * * * * * * * * * * * * * * * * * * * * * * * * * * * //

dimensions      [0 2 -2 0 0 0 0];

internalField   nonuniform List<scalar> 
17475
(
0.00763372
0.0124982
0.0125514
0.0125508
0.0125506
0.0125505
0.0125506
0.0125505
0.0125504
0.0125503
0.0125503
0.0125506
0.0125503
0.0125503
0.0125505
0.0125503
0.0125503
0.0125505
0.0125503
0.0125502
0.0125508
0.012551
0.0125496
0.0125515
0.0125469
0.0125588
0.0125589
0.012559
0.0125591
0.0125589
0.0125587
0.0125587
0.0125587
0.0125586
0.0125585
0.0125585
0.0125584
0.0125581
0.0125586
0.0125629
0.0125696
0.012576
0.0125821
0.0125878
0.0125928
0.0125975
0.0126018
0.0126057
0.0126092
0.0126126
0.0126156
0.0126185
0.0126207
0.0126101
0.0120187
0.000246223
0.00440767
0.00528561
0.00530424
0.00529486
0.00529055
0.00528856
0.00528733
0.00528664
0.0052861
0.00528577
0.00528548
0.00528534
0.00528519
0.00528488
0.00528474
0.00528466
0.0052846
0.00528451
0.00528447
0.00528439
0.0052843
0.00528529
0.00528302
0.00528697
0.00529091
0.00529384
0.00529396
0.00529396
0.00529351
0.00529338
0.00529338
0.00529337
0.00529333
0.00529339
0.00529339
0.00529332
0.00529304
0.0052921
0.00529297
0.00529482
0.005297
0.00529924
0.00530141
0.00530359
0.00530565
0.00530773
0.00530989
0.00531231
0.00531517
0.00531898
0.00532436
0.00532156
0.00502933
0.00163012
3.08868e-05
0.00184552
0.00307723
0.00319513
0.00318631
0.00317728
0.0031723
0.00316943
0.00316777
0.0031665
0.0031656
0.00316494
0.00316453
0.00316406
0.00316339
0.00316287
0.00316266
0.00316255
0.00316239
0.00316222
0.00316198
0.00316226
0.00316179
0.00316327
0.00316426
0.00316569
0.00316761
0.00316836
0.00316824
0.00316807
0.00316801
0.00316812
0.00316817
0.00316823
0.00316848
0.00316873
0.00316879
0.00316844
0.00316805
0.00316828
0.00316889
0.00316971
0.00317062
0.00317173
0.00317305
0.00317446
0.0031762
0.00317842
0.00318153
0.00318608
0.00319297
0.00320141
0.00315729
0.00249611
0.000283189
9.86352e-06
0.000848482
0.00201189
0.00223601
0.00224417
0.00223381
0.00222692
0.00222282
0.00222025
0.00221828
0.00221699
0.00221609
0.00221528
0.00221448
0.00221338
0.00221249
0.00221217
0.00221202
0.00221171
0.00221143
0.00221141
0.00221105
0.0022117
0.00221226
0.00221284
0.00221337
0.00221406
0.00221464
0.00221474
0.00221476
0.00221485
0.0022151
0.00221516
0.00221535
0.00221576
0.00221614
0.00221641
0.00221629
0.00221625
0.00221666
0.0022172
0.0022179
0.0022186
0.0022196
0.00222105
0.00222272
0.00222477
0.00222736
0.00223165
0.00223801
0.00224701
0.00224982
0.00213801
0.00133264
8.90051e-05
4.47099e-06
0.000439649
0.00138529
0.00168593
0.00171878
0.00171162
0.00170392
0.00169908
0.00169587
0.00169328
0.00169128
0.00169038
0.0016895
0.00168841
0.00168684
0.00168584
0.00168551
0.00168513
0.00168455
0.00168428
0.00168395
0.00168428
0.00168438
0.00168435
0.00168441
0.00168472
0.00168503
0.00168508
0.00168521
0.00168529
0.0016857
0.00168627
0.00168631
0.00168651
0.00168695
0.0016874
0.00168782
0.00168794
0.00168836
0.00168919
0.00168987
0.00169063
0.00169124
0.00169232
0.00169418
0.00169631
0.00169874
0.00170147
0.00170655
0.00171405
0.00172256
0.00171133
0.00153722
0.000771271
4.18663e-05
2.4455e-06
0.000256125
0.000986092
0.00132551
0.00138394
0.0013829
0.00137545
0.00137027
0.00136654
0.00136386
0.00136085
0.00135987
0.00135893
0.00135748
0.00135569
0.0013548
0.00135447
0.00135401
0.0013531
0.00135237
0.00135256
0.00135278
0.0013526
0.00135222
0.00135195
0.00135177
0.00135188
0.00135186
0.00135179
0.00135194
0.0013525
0.0013535
0.00135357
0.00135385
0.00135443
0.001355
0.0013554
0.00135601
0.00135657
0.00135766
0.00135838
0.00135915
0.00135986
0.00136135
0.00136354
0.00136618
0.00136878
0.0013717
0.0013771
0.00138462
0.00139001
0.00136162
0.00114401
0.000485011
2.44085e-05
1.51459e-06
0.000164521
0.000722869
0.0010685
0.00114952
0.00115616
0.00115077
0.00114563
0.00114088
0.00113851
0.00113558
0.00113403
0.00113333
0.00113173
0.00112988
0.0011288
0.00112805
0.00112797
0.00112658
0.00112598
0.00112598
0.00112598
0.00112559
0.00112493
0.00112427
0.00112386
0.00112377
0.00112388
0.00112404
0.00112415
0.00112477
0.00112606
0.00112585
0.00112634
0.0011269
0.00112778
0.00112879
0.00112984
0.00113036
0.00113178
0.00113292
0.0011342
0.00113473
0.00113589
0.00113786
0.00114115
0.00114411
0.00114746
0.00115214
0.00115869
0.00116
0.00111469
0.000873979
0.000329372
1.60187e-05
1.02637e-06
0.00011429
0.000546151
0.000876721
0.000974907
0.000990055
0.000986929
0.00098155
0.000974128
0.000971636
0.000970804
0.00096913
0.000969027
0.000968195
0.000966665
0.000965408
0.000963513
0.00096313
0.000962196
0.000961503
0.000961267
0.000961327
0.000960905
0.000959857
0.000958523
0.000958619
0.000958659
0.000958855
0.000959208
0.000959024
0.000958822
0.000960096
0.000960433
0.00096196
0.000962215
0.000963094
0.000964873
0.000966185
0.000967393
0.000968195
0.000969991
0.000972318
0.000972666
0.000973084
0.000974832
0.0009785
0.00098207
0.000985945
0.000988772
0.000994307
0.000991447
0.000932081
0.000685039
0.000237776
1.1235e-05
7.44714e-07
8.43136e-05
0.000426673
0.000733288
0.000843101
0.000863926
0.000862315
0.000859393
0.000850948
0.000845718
0.0008455
0.000843872
0.00084496
0.000844692
0.000843334
0.000839953
0.000837799
0.000839114
0.000838351
0.000837562
0.000837992
0.000838993
0.00083761
0.000836086
0.000835218
0.000835704
0.000835425
0.000835372
0.000835538
0.000834664
0.0008334
0.000833886
0.000836301
0.000838621
0.000837099
0.000837907
0.000840936
0.000842534
0.000843708
0.0008432
0.000846409
0.000851276
0.000850757
0.000851955
0.000855441
0.00085831
0.000858795
0.000862116
0.000865841
0.000869732
0.000862964
0.000792991
0.000551035
0.000181274
8.41746e-06
5.71177e-07
6.53976e-05
0.000344591
0.000625047
0.000740236
0.000765009
0.000768541
0.000765254
0.000757462
0.000748708
0.000748313
0.000749984
0.000750505
0.000747615
0.000745147
0.000744252
0.000741803
0.000744957
0.000744641
0.000743252
0.000742675
0.000743687
0.000743059
0.00074197
0.00074196
0.000744472
0.000742065
0.000740253
0.000740501
0.000738067
0.000736539
0.000736235
0.000740449
0.000743786
0.000740156
0.000741522
0.00074582
0.000748506
0.000747714
0.000746451
0.000751333
0.000758774
0.000757129
0.000758822
0.00076506
0.000767664
0.000762711
0.000763253
0.000768016
0.000776214
0.000765529
0.000688108
0.00045837
0.000145383
6.66936e-06
4.56689e-07
5.26744e-05
0.000285998
0.000541207
0.000656563
0.000685743
0.00068942
0.000686697
0.00067603
0.00067071
0.000676624
0.000674821
0.000673059
0.000672405
0.000666897
0.000666277
0.000669735
0.000674184
0.000676721
0.000673895
0.000669805
0.000671209
0.000670152
0.000666965
0.000666446
0.000669247
0.00067008
0.000665481
0.000664908
0.000661
0.000660888
0.000657424
0.000661973
0.000667551
0.000663741
0.000666462
0.000672853
0.000674296
0.000670079
0.000667997
0.000675623
0.000683458
0.00068378
0.000684287
0.000692679
0.000692208
0.000687569
0.00068377
0.00068964
0.000701279
0.000689893
0.000608715
0.000393046
0.000121426
5.52739e-06
3.77832e-07
4.37998e-05
0.000243593
0.00047472
0.000591906
0.00062701
0.000622829
0.000624149
0.000621535
0.00061637
0.000614867
0.000621524
0.000616594
0.000605547
0.000608032
0.000610242
0.000606506
0.000607672
0.000613605
0.000611858
0.000611014
0.000611396
0.000608621
0.000609435
0.000608272
0.000611501
0.000606239
0.00059993
0.000600732
0.000600975
0.000600275
0.00059084
0.000596548
0.00060449
0.000606363
0.000610816
0.000615909
0.000613635
0.000608575
0.000607568
0.00061785
0.000617869
0.000621549
0.000626898
0.000632525
0.000631677
0.000628984
0.000626479
0.000630059
0.000642446
0.000630566
0.000547879
0.000343881
0.000104359
4.73859e-06
3.22771e-07
3.75977e-05
0.000212674
0.000420925
0.000539076
0.000582237
0.000577058
0.00057815
0.000574003
0.000569136
0.000572354
0.000579617
0.000571988
0.000553681
0.000568273
0.000564966
0.000554284
0.000562919
0.000564957
0.000563004
0.000560796
0.000559295
0.000557716
0.000556271
0.000560931
0.000562456
0.0005566
0.00054666
0.000549699
0.000548058
0.000536361
0.000539796
0.000552456
0.000553688
0.000557065
0.000556584
0.000565645
0.000560703
0.000560411
0.000560158
0.000570446
0.000569401
0.000572763
0.000581232
0.000582652
0.000583492
0.0005817
0.000573565
0.000584598
0.000596931
0.000581592
0.000493093
0.000303254
9.10565e-05
4.15617e-06
2.80434e-07
3.27133e-05
0.000186932
0.000378736
0.000492849
0.00053181
0.000556562
0.00053885
0.000533766
0.000538934
0.000536177
0.00053927
0.000529862
0.000522355
0.000529806
0.000532066
0.000540873
0.000536809
0.000528264
0.000518603
0.000511885
0.000505586
0.000512027
0.000509964
0.000520775
0.000510839
0.000508231
0.000513957
0.000504176
0.00050203
0.000521602
0.000505073
0.000508281
0.000512824
0.000515251
0.000512426
0.000528254
0.000518743
0.000512156
0.000519375
0.000525551
0.000530132
0.000524692
0.000530702
0.000530422
0.000542609
0.000538982
0.00053506
0.000542951
0.00055188
0.00053618
0.000445228
0.000270393
8.05071e-05
3.66485e-06
2.47794e-07
2.90185e-05
0.000166236
0.000344474
0.000453379
0.00049621
0.000526212
0.000523358
0.000514315
0.000512755
0.000515773
0.000546461
0.000509289
0.000505558
0.000509153
0.000500482
0.000528453
0.000519304
0.000493536
0.000502566
0.000492055
0.000513501
0.00050548
0.000489049
0.000493041
0.000517603
0.000512977
0.000500988
0.00050463
0.000506026
0.000491213
0.000495375
0.000513877
0.000484652
0.000480275
0.000487184
0.000509775
0.000531034
0.000491065
0.000493208
0.000508679
0.000500691
0.000512997
0.000550245
0.000531167
0.000505304
0.000509226
0.000531929
0.00054258
0.00050973
0.000494727
0.00040097
0.000242838
7.19699e-05
3.24853e-06
2.19548e-07
2.56726e-05
0.000152609
0.000299551
0.000418016
0.000482839
0.000515822
0.000517604
0.000509431
0.00052562
0.000558059
0.000579062
0.000570309
0.00053617
0.000559782
0.000540521
0.000522521
0.000515328
0.000495428
0.00049951
0.000490704
0.0004988
0.000531646
0.00052587
0.000552839
0.000591438
0.000607091
0.000592479
0.000600252
0.000595843
0.00055913
0.000565574
0.000556592
0.000534418
0.000526553
0.000484471
0.000507079
0.000514781
0.000512978
0.000490088
0.000495507
0.000502517
0.000531043
0.000526272
0.000538401
0.000491892
0.00049732
0.000526479
0.000516133
0.000495621
0.000467907
0.000365053
0.000215528
6.21319e-05
2.88809e-06
2.02624e-07
2.34676e-05
0.000140001
0.000284287
0.000398618
0.00047607
0.000511447
0.000519993
0.000527469
0.000555924
0.00057779
0.000587734
0.000599735
0.000550169
0.000561151
0.000597683
0.000549335
0.000545869
0.000502873
0.000511783
0.000554613
0.000595523
0.000621562
0.000666339
0.000753566
0.000732401
0.000610185
0.00054075
0.000545455
0.000678335
0.000753007
0.000715378
0.000634754
0.000627734
0.000600857
0.000529481
0.000503109
0.000514955
0.000530877
0.00052439
0.000505377
0.000518642
0.000519609
0.000525304
0.000540704
0.000504483
0.000502342
0.000567108
0.000513018
0.000486311
0.000458611
0.000344252
0.000196279
5.89703e-05
2.6982e-06
1.8188e-07
2.33509e-05
0.000146892
0.000276452
0.000393568
0.000481737
0.000533363
0.000566717
0.000571869
0.000557735
0.000590641
0.000597979
0.00060119
0.000577715
0.000569674
0.000583539
0.000570361
0.000539435
0.000540686
0.000587493
0.000648291
0.000677121
0.000742707
0.00076787
0.000662125
0.000220023
3.34735e-06
1.87122e-05
0.000543633
0.000795588
0.000794489
0.00072486
0.000668328
0.000625857
0.000546818
0.000536634
0.000549846
0.000529417
0.000521199
0.000537051
0.000525404
0.000541286
0.000581279
0.000518329
0.00050716
0.00056846
0.000541911
0.000490404
0.000445729
0.000323113
0.00019071
5.79229e-05
2.63689e-06
7.33713e-08
1.84526e-05
0.000131266
0.000277685
0.00039859
0.000499143
0.000554884
0.000576318
0.000579322
0.000572341
0.000593612
0.000599832
0.000600907
0.000587674
0.00057844
0.000581229
0.000569007
0.000560653
0.000553484
0.000618835
0.000736357
0.000842073
0.000820818
0.000655043
0.000185772
8.13055e-07
0.000440625
0.000783323
0.000847304
0.00077148
0.000674074
0.000566286
0.000548381
0.00055181
0.000538685
0.00053959
0.000534828
0.000539933
0.000553155
0.000559662
0.000519776
0.000519073
0.000558683
0.000542979
0.000508237
0.000436661
0.000316634
0.000191087
6.1842e-05
2.4928e-06
1.43566e-07
2.89895e-05
0.000190148
0.000383103
0.000494507
0.000639742
0.000687802
0.000662148
0.000656322
0.000653598
0.000666062
0.000739392
0.000701159
0.000671616
0.000675258
0.000664837
0.000651619
0.000644515
0.00063581
0.000692561
0.000842407
0.000871882
0.000788215
0.000388683
2.48496e-05
0.000132563
0.000737504
0.000869802
0.000864017
0.000747096
0.000651961
0.000654388
0.00063981
0.000612188
0.000607085
0.000631171
0.000608399
0.000597659
0.000627844
0.000608593
0.000587702
0.000618652
0.000593135
0.000563483
0.000480204
0.000399009
0.000244789
7.421e-05
3.64755e-06
2.57388e-07
3.36879e-05
0.000208631
0.00037994
0.000502999
0.000622424
0.000679907
0.000671603
0.000698502
0.000670518
0.000681217
0.000736113
0.000768083
0.000757217
0.000723929
0.000710406
0.000673735
0.000641117
0.000644996
0.000700161
0.000826287
0.000848518
0.000699015
0.000230819
1.38032e-05
2.53547e-07
1.16831e-06
7.77954e-05
0.000564746
0.000777765
0.000877216
0.000737084
0.000659691
0.000651238
0.000647602
0.000647382
0.000618017
0.000679691
0.000610966
0.000635419
0.000629088
0.00058161
0.000591171
0.000616401
0.000589327
0.000598078
0.000486638
0.000386231
0.000245106
8.04712e-05
3.62438e-06
2.93497e-07
3.35566e-05
0.000201968
0.000394887
0.000506076
0.000620674
0.000730137
0.000724766
0.000722972
0.000685403
0.00073242
0.000720577
0.000754237
0.00074779
0.000729
0.000712867
0.000678932
0.00065219
0.000724496
0.00070993
0.000854045
0.000837031
0.000590308
0.000185376
2.43237e-05
4.13554e-05
8.44745e-05
0.000123548
0.000111583
7.63776e-05
2.37966e-05
7.2163e-05
0.000456766
0.000757013
0.000853079
0.000793107
0.000667749
0.000670297
0.000678474
0.000679701
0.000634677
0.000643783
0.000632888
0.000651598
0.000633064
0.000592244
0.000600723
0.000614687
0.000665635
0.00057775
0.000497811
0.000399884
0.000251797
7.78e-05
3.68841e-06
3.08718e-07
3.54343e-05
0.000202021
0.00040659
0.000519512
0.000639563
0.000695033
0.000708311
0.000783326
0.000704168
0.000718872
0.000735544
0.00076232
0.000721686
0.000730161
0.000721156
0.000677126
0.00065714
0.000716714
0.000713167
0.000817359
0.000798849
0.000483285
0.000162974
7.90274e-05
0.000365175
0.000755079
0.000947184
0.000888899
0.000571183
0.000166604
9.2232e-05
0.000415628
0.000781421
0.000828895
0.000784984
0.000668982
0.000664299
0.000685553
0.000688275
0.000678492
0.00063593
0.000657672
0.000699372
0.000648714
0.000616622
0.000625024
0.00063011
0.000665242
0.000615603
0.000509461
0.000438465
0.000277238
7.81392e-05
3.64301e-06
3.18362e-07
3.68331e-05
0.000224979
0.000471761
0.000578441
0.000717996
0.000711103
0.000747162
0.000752681
0.000747146
0.000716272
0.000739084
0.000730603
0.000706015
0.000697851
0.000691656
0.00071101
0.000714847
0.000708656
0.00071008
0.000802148
0.000720257
0.000464352
0.000187345
0.000230046
0.000785939
0.00122745
0.00135539
0.00139517
0.00116804
0.000490284
0.000157709
0.000384917
0.000682355
0.000809726
0.000744115
0.000662696
0.000662935
0.000752242
0.000768089
0.000704821
0.000672302
0.000722433
0.000741358
0.0006449
0.000662701
0.000635923
0.000633652
0.00065837
0.000612837
0.000518969
0.000433584
0.000270959
7.82193e-05
3.69828e-06
3.18982e-07
3.65229e-05
0.000228597
0.000468301
0.000613036
0.000706402
0.000760727
0.000741712
0.000759479
0.000761743
0.000740642
0.00073777
0.00074002
0.000751837
0.000684809
0.000673696
0.000715206
0.000704952
0.000710065
0.000770368
0.000766556
0.000663626
0.000468485
0.000266333
0.000386685
0.0010518
0.00151876
0.00160571
0.00172352
0.00171129
0.000905527
0.00028626
0.000384908
0.000688461
0.000748529
0.000738682
0.000687725
0.000725909
0.000727931
0.000729642
0.000691173
0.000722701
0.000730771
0.000712794
0.000686863
0.000673221
0.00063203
0.000640222
0.000638115
0.000621603
0.000537482
0.000435108
0.000274413
8.01174e-05
3.70348e-06
3.17718e-07
3.59834e-05
0.000220037
0.000454516
0.000603671
0.000704833
0.000762827
0.000758298
0.000802092
0.000761928
0.000765676
0.000762312
0.000803665
0.000781477
0.000689899
0.00067751
0.000714934
0.000763717
0.000703977
0.000736492
0.000754983
0.000646606
0.000489062
0.00036104
0.000488423
0.0011866
0.00176377
0.00184714
0.00196297
0.00214334
0.00125888
0.000451765
0.000445112
0.000668043
0.000728173
0.000765451
0.000718057
0.000761827
0.000721566
0.000756802
0.000695204
0.000686411
0.000713622
0.000730379
0.000709802
0.000695824
0.000717765
0.000659606
0.000639734
0.000641189
0.00055175
0.000469243
0.000281775
9.18005e-05
3.88776e-06
3.14225e-07
3.54876e-05
0.000217896
0.000449036
0.000600072
0.000732255
0.000786884
0.000804635
0.000798402
0.000820837
0.000766374
0.000761094
0.000776
0.000740644
0.000698917
0.000682806
0.000754379
0.000723706
0.000707504
0.000725975
0.000736565
0.000646093
0.000517144
0.00046158
0.000562864
0.00118972
0.00191895
0.00210236
0.00219243
0.00239138
0.00145
0.000624231
0.000541593
0.000625066
0.000793594
0.000771128
0.000718521
0.000738955
0.000740565
0.00072323
0.000785748
0.00072762
0.00070852
0.000715667
0.000736518
0.000689282
0.000692364
0.000718122
0.000648224
0.000653292
0.000569276
0.000476737
0.000314145
8.37062e-05
3.79548e-06
3.1939e-07
3.62803e-05
0.000237643
0.000453646
0.000601174
0.000784519
0.000782706
0.000822557
0.000789605
0.000792359
0.000778662
0.000759234
0.000797672
0.000730738
0.00069518
0.000685804
0.000760445
0.000722428
0.000741752
0.000739036
0.000733884
0.000684845
0.000599639
0.000564147
0.000668735
0.00119792
0.00205982
0.0023912
0.00245816
0.00263373
0.00161875
0.000784244
0.000615753
0.000619634
0.000762264
0.000782497
0.000723285
0.000740291
0.000723572
0.000707908
0.000761493
0.000733395
0.000712987
0.000768716
0.000725046
0.00073708
0.000706282
0.000720874
0.000682653
0.000639244
0.000580132
0.000480837
0.000318071
8.45726e-05
3.76575e-06
3.22118e-07
3.68861e-05
0.000229115
0.000462442
0.000618267
0.000727384
0.000822764
0.000812829
0.00079373
0.000842406
0.000783406
0.000807761
0.000789752
0.000741022
0.000711788
0.00074927
0.000752335
0.00078739
0.000735406
0.00077942
0.000776253
0.000676611
0.000587036
0.00062974
0.000785138
0.00131925
0.00230079
0.00271585
0.0027719
0.00302752
0.0018205
0.000885853
0.000634409
0.00063446
0.000723509
0.000750141
0.000791751
0.000777839
0.000725854
0.000711371
0.000722849
0.00072726
0.000729421
0.000735595
0.000751108
0.000734991
0.000756124
0.000726083
0.00074663
0.000664261
0.000611267
0.000481354
0.000306238
8.42258e-05
3.70121e-06
3.24151e-07
3.72447e-05
0.000239099
0.000491921
0.000626634
0.000776423
0.000803605
0.00084739
0.000848753
0.000864904
0.000795202
0.000793863
0.000777769
0.000739139
0.000725832
0.000753462
0.000734236
0.000756362
0.000730843
0.000756628
0.000780099
0.000678956
0.000592387
0.000648165
0.000854546
0.00148744
0.00264416
0.0030603
0.00309073
0.00348217
0.00197206
0.00090876
0.000645358
0.00067197
0.000713393
0.000734664
0.000750354
0.000786103
0.000749053
0.000767784
0.000706845
0.000768427
0.000724537
0.000759053
0.000721535
0.000719962
0.000733444
0.000804984
0.000751771
0.000702432
0.000614128
0.000498077
0.000305739
8.4841e-05
3.64668e-06
3.20495e-07
3.70022e-05
0.000233916
0.000490953
0.000633983
0.000738606
0.000824787
0.00087898
0.000871124
0.000859418
0.000809252
0.000788417
0.00077873
0.000755771
0.000749129
0.000749595
0.00071512
0.000724883
0.000728925
0.000762852
0.000764555
0.000687495
0.000609672
0.000636714
0.000868588
0.001562
0.00299639
0.0033822
0.00337021
0.00375779
0.00185667
0.000881047
0.000649826
0.000665741
0.000709104
0.000756835
0.000749191
0.000779055
0.000739841
0.00076784
0.000733877
0.00076367
0.000735264
0.000768093
0.000770469
0.000722668
0.000740602
0.000779691
0.000729883
0.000665017
0.000609763
0.000505831
0.000300255
8.33889e-05
3.5438e-06
3.20613e-07
3.68912e-05
0.000237317
0.000509603
0.000646499
0.000737381
0.000803146
0.000837652
0.000875843
0.000853679
0.00080985
0.000791666
0.000776638
0.000803586
0.00075141
0.000771718
0.000714808
0.000712749
0.000746838
0.000768177
0.000756269
0.000749783
0.000657971
0.000663978
0.000851125
0.00160342
0.00323248
0.00363582
0.00355291
0.00377734
0.00167498
0.000843037
0.000666588
0.000670281
0.000708883
0.00074677
0.000768289
0.000759602
0.000745762
0.000742803
0.000759447
0.000749309
0.000783966
0.000747094
0.000771347
0.000726097
0.000734124
0.000749066
0.000744932
0.000695666
0.000609224
0.000515189
0.000324649
8.18839e-05
3.46265e-06
3.31073e-07
3.84585e-05
0.000260601
0.000518289
0.000689973
0.000739276
0.000784943
0.000818227
0.000823412
0.000832718
0.000848407
0.000841904
0.000796751
0.000800059
0.000765608
0.000790228
0.000754744
0.000784854
0.000736156
0.000750302
0.000742864
0.000713662
0.00066685
0.000668962
0.000840125
0.00159622
0.00331941
0.00373652
0.00360088
0.00349678
0.0015022
0.000832936
0.000680123
0.000708133
0.000710113
0.000745153
0.000757388
0.00074485
0.000732524
0.000760114
0.000765628
0.000784781
0.000779379
0.000733787
0.000751134
0.000747896
0.000743521
0.000751436
0.000722998
0.000683076
0.000670332
0.000529759
0.000324558
8.18307e-05
3.43929e-06
3.38485e-07
3.95628e-05
0.000267465
0.000560824
0.000755987
0.00080176
0.000822076
0.000867782
0.000860991
0.000827009
0.000821813
0.000815754
0.000797236
0.000764538
0.000765197
0.000744621
0.000799074
0.000768227
0.000728425
0.000749788
0.00074306
0.00073153
0.000675008
0.000690327
0.000842601
0.00159453
0.00326531
0.0036201
0.003436
0.00305634
0.00136367
0.000799772
0.000704187
0.000690554
0.000716091
0.000755338
0.000752374
0.000751228
0.000739838
0.000738307
0.000759726
0.000772928
0.000750343
0.000731356
0.000744106
0.00079039
0.000753046
0.000746485
0.000705919
0.000668857
0.000660756
0.000548019
0.000336124
8.1046e-05
3.38871e-06
3.37704e-07
4.01872e-05
0.000276536
0.000601188
0.000766598
0.00082291
0.000847841
0.000875217
0.000827549
0.000811344
0.000801108
0.000789315
0.000779457
0.00075025
0.000781834
0.000759435
0.000798703
0.000785675
0.000749122
0.000745773
0.000731647
0.000720282
0.000677273
0.000710859
0.00085255
0.00164622
0.00307468
0.0032892
0.00311594
0.00263343
0.00125829
0.000785935
0.000701948
0.000732275
0.000731174
0.000786809
0.00078451
0.000780394
0.000798994
0.000764087
0.000715932
0.00073122
0.000740203
0.000773616
0.000768571
0.000863408
0.00081204
0.000771488
0.000729903
0.000666093
0.000639536
0.000541443
0.000319718
7.97652e-05
3.32278e-06
3.22511e-07
3.87676e-05
0.000265179
0.000592404
0.000774226
0.000835949
0.000838319
0.000879975
0.000861092
0.000811018
0.000791178
0.000775882
0.000784354
0.000740291
0.000763336
0.000757475
0.00079041
0.000810647
0.000763612
0.000739728
0.000744142
0.000714267
0.000675363
0.00070092
0.000874353
0.00165139
0.00276492
0.00279937
0.00268649
0.00226513
0.00117282
0.000765633
0.000702115
0.000732108
0.000768762
0.000823384
0.000816428
0.000785121
0.000772159
0.000730992
0.000713405
0.000757209
0.000753347
0.000767434
0.000783356
0.000882826
0.00085235
0.000791622
0.000724711
0.000682308
0.000624854
0.000542284
0.00032
8.16489e-05
3.27426e-06
2.96949e-07
3.55854e-05
0.000240649
0.000552672
0.000736831
0.000806223
0.000820746
0.00084123
0.000834824
0.000795748
0.000782541
0.000770718
0.000747567
0.000771249
0.000734082
0.000733486
0.000762486
0.000779814
0.00073332
0.000733178
0.00073695
0.000684631
0.000679716
0.00069685
0.000873939
0.00161088
0.00240647
0.00229909
0.00226723
0.00197954
0.00111422
0.000756981
0.000699836
0.000704977
0.000743793
0.000791689
0.000785381
0.000769665
0.000746735
0.000742918
0.000743751
0.000729552
0.000746367
0.000752648
0.000815031
0.000898407
0.000834713
0.000775232
0.000722044
0.00067103
0.000631957
0.000556305
0.000328244
8.1684e-05
3.2384e-06
2.78186e-07
3.33248e-05
0.000226235
0.000519407
0.000702472
0.000760742
0.000787549
0.000820151
0.000814022
0.000790779
0.000764003
0.000791035
0.000786497
0.000762295
0.000728101
0.000709549
0.000738754
0.000727095
0.000737269
0.000713377
0.000723417
0.000685661
0.000691164
0.000688961
0.000865676
0.00153448
0.00206731
0.00189193
0.00192888
0.00175455
0.00106412
0.000727453
0.000670982
0.000712424
0.000716356
0.000756422
0.00075424
0.000725398
0.000711367
0.000705031
0.000725566
0.000714942
0.000746258
0.000783766
0.000805931
0.000863357
0.000804188
0.000760594
0.000729766
0.000699309
0.000621005
0.000543926
0.000318278
7.85969e-05
3.1633e-06
2.6436e-07
3.15873e-05
0.000210087
0.000481784
0.000647002
0.000724745
0.000749048
0.000776986
0.000766915
0.000761981
0.000780654
0.000753157
0.000774777
0.00075785
0.000739127
0.000696871
0.000713183
0.000713286
0.000713866
0.000713248
0.000704153
0.000700174
0.000680038
0.000680737
0.000866661
0.0014538
0.00178779
0.00159184
0.00167546
0.00158624
0.00102449
0.000732086
0.000660816
0.000681103
0.000693583
0.000735746
0.000706492
0.000730434
0.000693077
0.000693983
0.000710084
0.000720296
0.000749866
0.000784572
0.000808576
0.000826581
0.000781576
0.0007559
0.000732274
0.00069115
0.000622221
0.000541685
0.000332722
7.66707e-05
3.12166e-06
2.56626e-07
3.04312e-05
0.000206373
0.000465355
0.000633765
0.000699482
0.000724838
0.000756152
0.00075305
0.000742033
0.000736461
0.000742776
0.000749186
0.000731982
0.000712356
0.000689293
0.000678919
0.000677554
0.000683596
0.000683099
0.000713857
0.000689095
0.000649263
0.000680773
0.000877068
0.00137862
0.00157131
0.00137896
0.001487
0.00145109
0.000994348
0.000717261
0.000682656
0.000664104
0.000693181
0.000693483
0.000694291
0.000688236
0.000680241
0.000676611
0.000682985
0.000700311
0.000741784
0.000747441
0.000762771
0.000778863
0.000785935
0.00075173
0.00069837
0.000666381
0.000620325
0.000551483
0.00031331
7.71891e-05
3.13928e-06
2.53468e-07
2.96375e-05
0.000196369
0.000449087
0.000595395
0.00066381
0.000734905
0.000720206
0.000746638
0.000796235
0.000783177
0.000745969
0.000742937
0.000713873
0.000693138
0.000681468
0.000715553
0.000692362
0.00067785
0.000666843
0.000708362
0.000658678
0.000642051
0.000703522
0.000901514
0.00131277
0.00140814
0.00122887
0.00134496
0.00135179
0.000958407
0.000707921
0.000683562
0.000688728
0.000691623
0.000679283
0.000687451
0.000689708
0.000716566
0.000704745
0.000668691
0.000687166
0.000711855
0.000737671
0.000771585
0.000769736
0.000744993
0.00073902
0.000690472
0.000652741
0.000614889
0.000536922
0.000312268
7.84395e-05
3.1948e-06
2.55204e-07
2.97693e-05
0.000198412
0.000441145
0.000586908
0.000644114
0.000692538
0.000700859
0.000740515
0.000753362
0.00077799
0.000770889
0.000745204
0.000713296
0.000689156
0.000699406
0.000720634
0.000676134
0.000673907
0.000669333
0.00066905
0.000647004
0.000638591
0.000692789
0.000912751
0.00124102
0.00128033
0.0011202
0.00123263
0.00126501
0.000968912
0.000718267
0.000671172
0.000658913
0.0006633
0.000673383
0.00070489
0.000718532
0.000711233
0.000677622
0.000668291
0.000676726
0.00070853
0.000753385
0.000728841
0.00073489
0.000724182
0.000706416
0.000731062
0.000680431
0.000625239
0.000535892
0.000312103
7.86846e-05
3.25046e-06
2.65888e-07
3.12777e-05
0.000210721
0.000450803
0.000580257
0.000634697
0.000731207
0.000694314
0.000735023
0.000746584
0.00075392
0.0007695
0.000774835
0.000742164
0.00069886
0.000699027
0.00069178
0.000686386
0.000724838
0.000675834
0.000666876
0.000669172
0.00065706
0.000688637
0.000881684
0.00117173
0.00117535
0.00103704
0.00114212
0.00119068
0.000958347
0.00073451
0.00069507
0.000671507
0.000674593
0.000684848
0.000676148
0.000689435
0.00074601
0.000724444
0.000708154
0.000677113
0.000702913
0.000739438
0.000751654
0.000750091
0.000739655
0.00073982
0.000697244
0.000666104
0.000624107
0.000534764
0.000319859
8.1413e-05
3.34955e-06
2.75783e-07
3.22423e-05
0.000208989
0.000459462
0.000598078
0.000652227
0.000698401
0.000699094
0.000812423
0.000806477
0.00074094
0.000739943
0.000748825
0.000732796
0.000704753
0.000698784
0.000742191
0.00070873
0.000709444
0.000690485
0.00067533
0.000717268
0.000673331
0.000696453
0.000885865
0.0011072
0.00109132
0.000968848
0.00106972
0.00113117
0.000946632
0.000721664
0.000660133
0.000644339
0.00068859
0.000703278
0.000683783
0.000686931
0.000705298
0.00070009
0.000719084
0.000693981
0.000695305
0.000718572
0.000714208
0.000709489
0.000702871
0.000730164
0.00072378
0.000663522
0.000625837
0.000564983
0.000319743
8.19672e-05
3.42935e-06
2.87067e-07
3.33392e-05
0.000223005
0.00048841
0.000627475
0.000669893
0.000696531
0.000709841
0.000768779
0.000792461
0.000749733
0.00076808
0.000752279
0.000741928
0.000750019
0.000707597
0.000749262
0.000727237
0.000737971
0.000699604
0.000722113
0.00068919
0.00068502
0.000749899
0.000882014
0.00105131
0.00101045
0.00090217
0.00100984
0.00107837
0.000929589
0.000717741
0.000692877
0.000664169
0.000682532
0.000693745
0.000685169
0.000749398
0.000707315
0.000758285
0.000775192
0.000729031
0.000700851
0.000761648
0.000721898
0.000710063
0.000703975
0.000713312
0.000712338
0.000667777
0.000634285
0.0005649
0.000326296
8.29484e-05
3.5116e-06
2.95146e-07
3.41142e-05
0.000225475
0.000493301
0.000640619
0.000683639
0.000735449
0.000739756
0.00076273
0.000791954
0.00077408
0.000730709
0.000765399
0.000784946
0.000799179
0.000726885
0.000727611
0.000729322
0.000748535
0.000745448
0.000715492
0.000685726
0.000674494
0.000751104
0.00085329
0.00100619
0.000940158
0.000855814
0.000952982
0.00102371
0.000900928
0.000751568
0.000690732
0.000729211
0.000700114
0.00070078
0.000709102
0.000725608
0.000743261
0.000757516
0.000728787
0.000771544
0.000734196
0.000727686
0.000751774
0.000749777
0.000730807
0.000737935
0.000704703
0.000676855
0.000677967
0.000564483
0.000363596
8.66094e-05