/*--------------------------------*- C++ -*----------------------------------*\
  =========                 |
  \\      /  F ield         | OpenFOAM: The Open Source CFD Toolbox
   \\    /   O peration     | Website:  https://openfoam.org
    \\  /    A nd           | Version:  7
     \\/     M anipulation  |
\*---------------------------------------------------------------------------*/
FoamFile
{
    version     2.0;
    format      ascii;
    class       volScalarField;
    location    "20";
    object      nut;
}
// * * * * * * * * * * * * * * * * * * * * * * * * * * * * * * * * * * * * * //

dimensions      [0 2 -1 0 0 0 0];

internalField   nonuniform List<scalar> 
17475
(
3.12044e-05
0.000188849
0.000188081
0.000188028
0.000188026
0.000188026
0.000188026
0.000188026
0.000188026
0.000188026
0.000188025
0.000188026
0.000188026
0.000188025
0.000188025
0.000188025
0.000188025
0.000188025
0.000188025
0.000188025
0.000188025
0.000188026
0.000188025
0.000188026
0.000188024
0.000188027
0.000188027
0.000188027
0.000188027
0.000188027
0.000188027
0.000188027
0.000188027
0.000188027
0.000188027
0.000188027
0.000188027
0.000188027
0.000188027
0.000188028
0.00018803
0.000188032
0.000188033
0.000188035
0.000188036
0.000188037
0.000188038
0.000188039
0.00018804
0.000188041
0.000188042
0.000188043
0.000188054
0.000188286
0.000150674
9.22019e-07
0.000115371
0.000172094
0.000176589
0.000176754
0.000176759
0.000176758
0.000176758
0.000176757
0.000176755
0.000176753
0.000176752
0.000176754
0.000176753
0.000176748
0.000176746
0.000176747
0.000176748
0.000176748
0.000176748
0.000176747
0.000176746
0.000176748
0.00017674
0.000176749
0.000176753
0.000176758
0.000176757
0.000176756
0.000176755
0.000176755
0.000176756
0.000176756
0.000176755
0.000176757
0.000176758
0.000176757
0.000176755
0.000176752
0.000176751
0.000176751
0.000176751
0.000176751
0.000176751
0.000176754
0.000176755
0.000176756
0.000176759
0.000176762
0.000176766
0.000176765
0.000176704
0.000175364
0.000153944
1.68194e-05
1.19973e-07
5.91834e-05
0.000151141
0.00016823
0.000169905
0.000170008
0.000170013
0.000170014
0.000170016
0.00017001
0.000170006
0.000170003
0.000170006
0.000170002
0.000169983
0.000169971
0.000169973
0.00016998
0.000169983
0.000169985
0.000169984
0.000169985
0.000169982
0.000169983
0.000169982
0.000169982
0.00016999
0.000169989
0.000169983
0.000169982
0.000169988
0.000169991
0.000169988
0.000169987
0.000169993
0.000169999
0.000169997
0.000169991
0.000169987
0.000169982
0.000169983
0.000169981
0.000169976
0.000169978
0.000169986
0.000169988
0.000169992
0.000169998
0.000170009
0.000170018
0.000169975
0.000169343
0.000161167
0.000102843
3.04202e-06
3.86063e-08
3.04413e-05
0.000127836
0.000159106
0.000164767
0.000165325
0.000165379
0.000165393
0.000165399
0.000165385
0.000165386
0.000165391
0.000165387
0.000165372
0.000165331
0.000165299
0.000165306
0.000165325
0.000165331
0.000165335
0.00016534
0.000165343
0.000165347
0.000165337
0.000165327
0.000165326
0.000165329
0.000165322
0.00016531
0.000165306
0.000165323
0.000165332
0.000165323
0.000165323
0.000165334
0.000165339
0.000165342
0.000165337
0.000165331
0.00016533
0.000165333
0.00016533
0.000165319
0.000165325
0.00016535
0.000165364
0.00016537
0.000165361
0.000165385
0.000165389
0.000165154
0.000162513
0.000144059
6.41194e-05
1.07884e-06
1.75718e-08
1.70668e-05
0.000104922
0.000148992
0.0001599
0.000161687
0.000161897
0.000161946
0.000161956
0.00016193
0.000161905
0.000161943
0.000161955
0.000161923
0.000161847
0.000161814
0.000161837
0.000161851
0.00016185
0.000161856
0.000161871
0.000161888
0.00016188
0.000161852
0.000161844
0.000161844
0.000161838
0.000161812
0.000161786
0.000161771
0.000161811
0.000161848
0.00016183
0.000161819
0.000161822
0.000161825
0.000161831
0.00016183
0.000161827
0.000161854
0.000161861
0.000161857
0.00016183
0.000161836
0.000161894
0.000161935
0.000161942
0.000161891
0.000161909
0.000161866
0.000161059
0.000154844
0.000126099
4.1914e-05
5.49846e-07
9.62733e-09
1.05193e-05
8.49832e-05
0.000138698
0.000154708
0.000158525
0.000159097
0.000159221
0.000159225
0.000159222
0.000159119
0.000159191
0.000159227
0.000159167
0.000159066
0.000159056
0.000159109
0.000159125
0.000159087
0.000159088
0.00015913
0.000159169
0.000159151
0.000159112
0.000159115
0.000159088
0.000159065
0.000159013
0.000158957
0.000158938
0.000159007
0.0001591
0.000159074
0.000159051
0.000159054
0.00015907
0.000159065
0.000159073
0.000159063
0.00015911
0.000159101
0.000159089
0.000159054
0.000159088
0.000159174
0.000159268
0.000159258
0.000159166
0.000159146
0.000158927
0.000156986
0.000146673
0.000109021
2.90846e-05
3.32662e-07
5.96764e-09
7.03707e-06
6.88522e-05
0.000128323
0.000149107
0.000155406
0.000156741
0.00015702
0.000156896
0.000156937
0.000156875
0.000156922
0.000157013
0.000156955
0.000156857
0.000156823
0.000156865
0.000156949
0.000156853
0.000156823
0.00015688
0.000156938
0.000156898
0.000156863
0.000156833
0.000156781
0.000156735
0.000156673
0.000156638
0.000156638
0.000156726
0.000156884
0.000156798
0.000156778
0.000156748
0.000156831
0.000156913
0.000156922
0.000156869
0.000156946
0.000156973
0.000156995
0.000156883
0.000156851
0.000156899
0.000157131
0.000157145
0.000157029
0.00015685
0.000156227
0.000152686
0.000138537
9.39748e-05
2.12771e-05
2.22533e-07
4.0457e-09
5.03382e-06
5.63277e-05
0.000118323
0.000143621
0.000152509
0.000154872
0.000155324
0.000154756
0.000154812
0.000155126
0.000155194
0.000155344
0.000155373
0.00015537
0.000155299
0.000155196
0.000155255
0.000155133
0.000155024
0.000155068
0.000155228
0.000155173
0.00015508
0.000154901
0.000154939
0.000154892
0.00015481
0.000154846
0.000154893
0.000154833
0.000154964
0.00015494
0.000155079
0.000154965
0.000155074
0.000155273
0.000155267
0.000155286
0.000155247
0.000155371
0.000155519
0.00015532
0.00015512
0.000155139
0.000155538
0.00015566
0.000155532
0.000154936
0.000153771
0.000148532
0.000130967
8.14606e-05
1.62036e-05
1.57087e-07
2.93583e-09
3.7949e-06
4.68965e-05
0.000109549
0.000139307
0.000150388
0.000153906
0.000155033
0.000154246
0.000153823
0.000154347
0.000154559
0.000154885
0.000154949
0.0001551
0.000154592
0.000154346
0.000154523
0.000154271
0.000154051
0.000154222
0.000154674
0.0001545
0.000154265
0.000154166
0.000154262
0.000153975
0.000153741
0.000153798
0.000153957
0.000153762
0.000153591
0.000153934
0.000154289
0.000153866
0.000153964
0.000154301
0.000154267
0.000154244
0.000153987
0.000154348
0.000154805
0.000154377
0.000154295
0.00015478
0.000155132
0.000154631
0.000154341
0.000153697
0.000151713
0.000145028
0.000124331
7.13363e-05
1.28667e-05
1.18924e-07
2.2514e-09
2.99396e-06
3.98591e-05
0.00010215
0.000135996
0.00014884
0.00015464
0.000156194
0.000155068
0.000153659
0.000154504
0.000155596
0.000155864
0.000155234
0.000155197
0.000155049
0.000154473
0.000155272
0.000154889
0.000154353
0.000154342
0.000154791
0.000154741
0.000154754
0.00015504
0.000155434
0.000154532
0.000153851
0.000153947
0.000153895
0.000153669
0.000153313
0.000154003
0.000154556
0.000153543
0.000153801
0.00015451
0.000154571
0.000153846
0.000153437
0.000154487
0.000155308
0.000154319
0.000154249
0.000155506
0.000156308
0.000154802
0.000153392
0.00015259
0.000151082
0.000143081
0.000119283
6.38895e-05
1.06639e-05
9.51668e-08
1.79991e-09
2.44388e-06
3.44864e-05
9.57846e-05
0.000133025
0.000147396
0.000154236
0.000156346
0.000154511
0.000153629
0.000155941
0.000156663
0.000156819
0.000156527
0.000155621
0.000155826
0.00015659
0.000157782
0.00015787
0.000156833
0.00015592
0.000156513
0.000156469
0.000155731
0.000156106
0.000157253
0.000156951
0.000155488
0.000155323
0.000154679
0.000154796
0.000153585
0.000154306
0.000155497
0.000154124
0.000154655
0.000155506
0.000155436
0.000153792
0.000153141
0.000154707
0.000155861
0.000155317
0.000155126
0.000157511
0.000157683
0.000155975
0.00015334
0.000152234
0.000150808
0.000142655
0.000115914
5.83487e-05
9.14549e-06
7.96328e-08
1.48899e-09
2.05334e-06
3.03957e-05
8.99848e-05
0.000131013
0.000147859
0.000153216
0.000156264
0.000156429
0.00015558
0.000156726
0.000160056
0.000160904
0.000156147
0.000157147
0.000158922
0.000156185
0.000157688
0.000158516
0.000157898
0.000158274
0.000158214
0.000158001
0.000159656
0.000160007
0.000160599
0.000157736
0.000157603
0.000158092
0.000156059
0.000155376
0.000153585
0.000153713
0.000156738
0.000156945
0.000157661
0.000158771
0.000157745
0.000154863
0.000154049
0.000156486
0.000156154
0.000156008
0.000156888
0.000159066
0.000158664
0.000158555
0.000154823
0.00015344
0.000151549
0.000142307
0.000113369
5.37912e-05
8.03333e-06
6.89199e-08
1.27196e-09
1.77858e-06
2.72832e-05
8.45444e-05
0.000128301
0.000150918
0.000154937
0.000159422
0.000158549
0.000154712
0.000157652
0.000165576
0.000163698
0.000158236
0.00016261
0.000160986
0.000157311
0.00016014
0.000160952
0.000160289
0.000159996
0.00015965
0.000158688
0.000159116
0.00016296
0.00016297
0.00016077
0.000158284
0.000159516
0.000158222
0.000153938
0.00015561
0.000159694
0.000159311
0.0001595
0.00015891
0.000161609
0.000159213
0.000157726
0.000156271
0.000158594
0.000158246
0.000159247
0.000160989
0.000161223
0.000163196
0.00016249
0.000157433
0.000156908
0.0001562
0.000145034
0.000109207
4.93346e-05
7.13517e-06
6.1026e-08
1.10501e-09
1.55769e-06
2.45128e-05
7.96148e-05
0.000125835
0.000144148
0.000155622
0.000154716
0.000153795
0.000157584
0.000158788
0.000161056
0.000158519
0.000156578
0.000158712
0.000158324
0.000160453
0.000158125
0.000154987
0.000151689
0.000149593
0.000147794
0.000150254
0.00015048
0.000155205
0.000153017
0.000152143
0.000153173
0.000150149
0.000149333
0.000155086
0.000150158
0.000151277
0.000151852
0.000152108
0.000150815
0.000155203
0.000152119
0.000150535
0.000152363
0.000153742
0.000155304
0.000153928
0.000154922
0.000154431
0.000159149
0.000156351
0.000153298
0.000152375
0.00015004
0.000139596
0.000104181
4.53001e-05
6.38467e-06
5.39521e-08
9.76355e-10
1.38849e-06
2.22031e-05
7.52252e-05
0.000116879
0.000136097
0.000149997
0.000152244
0.000151144
0.000151801
0.000154275
0.000164378
0.000153483
0.000152445
0.000153176
0.000150185
0.000157819
0.000153865
0.000145389
0.000147437
0.000143858
0.000149898
0.000147774
0.000143428
0.000145135
0.000153439
0.000152411
0.000148769
0.000149773
0.000149718
0.000144879
0.000146105
0.000151218
0.000143081
0.000141861
0.000143862
0.000150257
0.000156793
0.000145998
0.000146676
0.000151191
0.000149106
0.00015282
0.000163664
0.000157386
0.000149271
0.000149408
0.000154393
0.000154436
0.000140133
0.0001303
9.56447e-05
4.14278e-05
5.76134e-06
4.78753e-08
8.64938e-10
1.23453e-06
2.06143e-05
6.632e-05
0.000109664
0.000134339
0.000148409
0.000152187
0.000151321
0.000157393
0.000168318
0.000175212
0.000172731
0.000162353
0.000169022
0.000162898
0.000156747
0.000152934
0.000145784
0.000145984
0.000142196
0.000143624
0.000151846
0.000148704
0.000155382
0.000166519
0.0001438
0.000130635
0.000135285
0.00015179
0.000157515
0.000161181
0.000159399
0.000153971
0.000153065
0.000142185
0.000149244
0.000152257
0.000153191
0.000146607
0.00014808
0.000150445
0.000159169
0.000157453
0.000160598
0.000146342
0.000147089
0.000154091
0.000147961
0.000137547
0.00012482
8.82478e-05
3.76076e-05
5.00614e-06
4.25734e-08
7.9301e-10
1.12958e-06
1.91204e-05
6.35554e-05
0.000106241
0.000133759
0.000148312
0.000154137
0.000157978
0.000167644
0.000175058
0.000178248
0.000181819
0.00016658
0.00016936
0.000180131
0.000164693
0.000161286
0.000147088
0.000147385
0.000156158
0.000165239
0.000167446
0.000172967
0.000159409
0.000106425
6.34783e-05
3.27692e-05
3.32155e-05
8.47539e-05
0.000129174
0.000187903
0.000170211
0.000171934
0.000168756
0.000151629
0.000145876
0.000151489
0.000158512
0.00015726
0.000151541
0.0001559
0.000156301
0.000157809
0.000162083
0.000150795
0.000149354
0.000167019
0.000148074
0.000136004
0.000123649
8.42445e-05
3.45125e-05
4.77757e-06
3.97821e-08
6.55658e-10
1.10326e-06
1.99145e-05
6.21057e-05
0.000105726
0.000136179
0.00015543
0.000168881
0.000172156
0.000168705
0.000179002
0.000181074
0.000181732
0.000174223
0.000171304
0.000175117
0.000169435
0.000157531
0.000155159
0.000164732
0.00017652
0.000178251
0.000187153
0.000163659
5.72382e-05
2.87232e-06
2.19523e-09
2.17289e-08
2.15025e-05
7.64984e-05
0.000190917
0.000186707
0.000179249
0.000173212
0.000155581
0.000155825
0.000162485
0.00015816
0.000155894
0.000161236
0.000157974
0.000162714
0.000174432
0.000155125
0.000151108
0.000167973
0.000157136
0.000137994
0.000121121
7.98571e-05
3.36724e-05
4.70846e-06
3.88703e-08
1.73252e-10
7.33212e-07
1.71396e-05
6.17974e-05
0.000106703
0.000139825
0.000160066
0.000169896
0.000172348
0.000170515
0.000176551
0.000177977
0.000177725
0.000173196
0.000169813
0.000169903
0.00016393
0.00015822
0.000152421
0.000165224
0.000189838
0.000209278
0.000168329
4.74926e-05
2.7955e-06
4.36296e-10
1.30575e-05
0.000116763
0.000193592
0.00019386
0.000177593
0.000154837
0.00015455
0.000159022
0.000157095
0.000158
0.000157523
0.000159561
0.000163628
0.000165266
0.000153113
0.000152459
0.000163036
0.000155788
0.000141784
0.000117948
7.8428e-05
3.41104e-05
5.06074e-06
3.69768e-08
3.39646e-10
1.28569e-06
2.48668e-05
8.27915e-05
0.000125306
0.000167937
0.000185796
0.000181888
0.000181024
0.000180228
0.000182619
0.000201786
0.000191243
0.000181562
0.000181079
0.00017604
0.000170673
0.000166471
0.000159379
0.000166531
0.000195149
0.000182791
0.000113052
1.73779e-05
2.72272e-07
3.0255e-06
6.41083e-05
0.000163863
0.000193735
0.000176287
0.000159902
0.000167158
0.000166562
0.00016082
0.000160943
0.000169068
0.000164185
0.000162007
0.000170766
0.000165795
0.000160536
0.000168422
0.000159636
0.000148234
0.000122532
9.43435e-05
4.27807e-05
6.19071e-06
5.46339e-08
9.2128e-10
1.54841e-06
2.81439e-05
8.24165e-05
0.000125968
0.000161648
0.000181034
0.000182176
0.00019011
0.000181792
0.000184471
0.000198383
0.000205687
0.000201333
0.000190236
0.000183734
0.000173118
0.000162521
0.000157561
0.000164643
0.000185104
0.000163353
8.13845e-05
1.12179e-05
4.07754e-07
1.24315e-09
1.47455e-08
2.69905e-06
4.31559e-05
0.000123012
0.000187207
0.000169602
0.000157692
0.000162009
0.000163512
0.000166358
0.000159721
0.000177108
0.000161412
0.000169641
0.000168924
0.000156818
0.000159439
0.000165643
0.000156723
0.000155744
0.000123393
9.07813e-05
4.26232e-05
6.65211e-06
5.34622e-08
1.14785e-09
1.598e-06
2.74542e-05
8.56677e-05
0.000126118
0.000160138
0.000193009
0.000194879
0.000195168
0.000184771
0.000197071
0.000192501
0.000199911
0.000196787
0.00018974
0.000183008
0.000172365
0.00016364
0.000175704
0.00016489
0.000187599
0.000156428
6.72728e-05
1.12235e-05
1.46889e-06
2.76119e-06
3.55141e-06
4.43487e-06
4.03555e-06
4.74686e-06
1.67991e-06
3.93441e-06
3.64911e-05
0.000114234
0.000176575
0.000180324
0.000158834
0.000165687
0.000170643
0.000172514
0.000161838
0.000166185
0.000165842
0.0001726
0.000169027
0.000159164
0.000161571
0.000164428
0.000176157
0.000149828
0.000125688
9.32533e-05
4.36857e-05
6.37467e-06
5.4331e-08
1.216e-09
1.70736e-06
2.74284e-05
8.78932e-05
0.000129038
0.0001647
0.000183601
0.000190122
0.000211255
0.000189453
0.000192597
0.000196461
0.000201914
0.000189187
0.000188972
0.000183713
0.000170838
0.000163947
0.000173702
0.000165596
0.000178429
0.000147155
5.77696e-05
1.259e-05
7.2397e-06
5.91464e-05
0.000173245
0.000245706
0.000226748
0.000122687
2.14737e-05
7.0455e-06
3.78767e-05
0.000117516
0.000169822
0.00017785
0.000158761
0.000163221
0.000171867
0.000174359
0.000173016
0.000163675
0.000171542
0.000184986
0.000173279
0.000165895
0.000168219
0.000168445
0.000175899
0.000159512
0.000128402
0.000102016
4.7969e-05
6.3721e-06
5.36704e-08
1.25415e-09
1.77829e-06
3.05043e-05
0.000101482
0.000143285
0.000184503
0.000187254
0.000199912
0.000202472
0.000200477
0.000191492
0.000197206
0.000193339
0.000184622
0.00018006
0.000175676
0.000178728
0.000177732
0.000171933
0.000165863
0.000176015
0.000133241
6.13895e-05
1.79599e-05
2.63375e-05
0.000152815
0.000320039
0.000405363
0.000408766
0.000279048
7.80573e-05
1.54295e-05
4.14773e-05
0.000107442
0.000167149
0.000169672
0.000158
0.000162766
0.000188388
0.000194368
0.000179596
0.000172796
0.000188239
0.000196011
0.00017248
0.0001786
0.000171245
0.00016918
0.000173702
0.000158688
0.000130724
0.000100595
4.67176e-05
6.36591e-06
5.45129e-08
1.25675e-09
1.76328e-06
3.09193e-05
0.000100176
0.00015117
0.000180655
0.000198586
0.000196574
0.000203172
0.000203574
0.000197317
0.00019624
0.000195149
0.000195823
0.000176097
0.000170564
0.000179278
0.000174995
0.000172562
0.000181096
0.00017087
0.000132564
6.93643e-05
3.05689e-05
4.96117e-05
0.000198102
0.000356163
0.000456348
0.000477192
0.000377203
0.00014887
3.2843e-05
4.92299e-05
0.000117494
0.000158179
0.00016977
0.000164543
0.00017841
0.000182018
0.000184559
0.000175952
0.000185275
0.000190283
0.000188354
0.000183793
0.000181382
0.000169903
0.00017049
0.000167907
0.000160718
0.00013517
0.000100631
4.71141e-05
6.50685e-06
5.45823e-08
1.25203e-09
1.7367e-06
2.96502e-05
9.63373e-05
0.000147657
0.000178601
0.000195893
0.000198791
0.000212276
0.000201266
0.000200653
0.000199969
0.000209499
0.000201621
0.000175468
0.000168059
0.00017695
0.000188735
0.000170632
0.000173443
0.000170203
0.000133028
8.05511e-05
4.82921e-05
6.68742e-05
0.000215296
0.000390005
0.000507616
0.000516828
0.000443907
0.000199124
5.86554e-05
6.66087e-05
0.000124127
0.000157598
0.000176775
0.000172163
0.00018713
0.000179232
0.000190678
0.000176265
0.000174743
0.000184372
0.000190578
0.000188655
0.000186541
0.00019191
0.000174341
0.000166945
0.000164807
0.000137898
0.000107877
4.81472e-05
7.43747e-06
5.70148e-08
1.23852e-09
1.71268e-06
2.92272e-05
9.4073e-05
0.000144871
0.00018319
0.000199047
0.00020785
0.000207786
0.000213273
0.000196683
0.000195605
0.00019738
0.000187164
0.000175771
0.00016614
0.000184207
0.00017718
0.000170453
0.000169778
0.000166485
0.000133638
9.29884e-05
7.05727e-05
8.29933e-05
0.000203465
0.000396614
0.00055772
0.000544206
0.000455825
0.000222237
9.18486e-05
9.25869e-05
0.000127638
0.000174529
0.000178284
0.000170517
0.000179015
0.000181754
0.000180546
0.000196792
0.00018334
0.000180901
0.000183593
0.000193822
0.000182226
0.000182437
0.000186516
0.000166157
0.000166041
0.000140786
0.000108641
5.33425e-05
6.75311e-06
5.52744e-08
1.25906e-09
1.75174e-06
3.17032e-05
9.4043e-05
0.000142493
0.000183594
0.000190692
0.000208994
0.000202358
0.000201953
0.000192404
0.0001924
0.000202477
0.000184621
0.000173741
0.000169289
0.000180468
0.000176046
0.00017889
0.000172899
0.000162028
0.000144102
0.000115746
9.67531e-05
0.000106736
0.000199494
0.000407651
0.000623987
0.000580476
0.000470788
0.000259041
0.000130795
0.000117738
0.000130376
0.000166174
0.000175721
0.000171149
0.000178126
0.000169548
0.000166183
0.000189357
0.000185591
0.000182596
0.000197921
0.000189038
0.000186743
0.000182923
0.000183991
0.000172425
0.000158635
0.0001414
0.000108391
5.33337e-05
6.80029e-06
5.45011e-08
1.27022e-09
1.78272e-06
3.05953e-05
9.39303e-05
0.000143305
0.000175398
0.000202509
0.000204211
0.000206849
0.000211357
0.000197541
0.000200822
0.000195915
0.000190541
0.000176497
0.000190004
0.000188622
0.000194098
0.000179175
0.000182643
0.000178409
0.00014733
0.000120215
0.000119832
0.000137856
0.000228574
0.000449761
0.000705514
0.000637691
0.000540197
0.000314246
0.000164448
0.000128994
0.000137261
0.000158543
0.000173112
0.000186445
0.000189833
0.000177073
0.000172547
0.000177695
0.000185411
0.000189445
0.000188343
0.000193884
0.000194167
0.000190926
0.000182472
0.000188077
0.000163927
0.000146694
0.000106236
5.14887e-05
6.75623e-06
5.32731e-08
1.27861e-09
1.80272e-06
3.20606e-05
0.000101641
0.000147555
0.000188752
0.000201964
0.000221241
0.000219313
0.000226607
0.000204148
0.000204363
0.00019949
0.000188549
0.00018705
0.000194208
0.00018805
0.000191493
0.00018255
0.00018821
0.000188708
0.000157068
0.000131199
0.000135336
0.000165684
0.000274696
0.000528938
0.000804202
0.000703898
0.000653266
0.000374488
0.000186387
0.000139686
0.000148311
0.000165547
0.000173444
0.000186263
0.00019574
0.000190447
0.000196375
0.000182294
0.000199201
0.000191387
0.000205793
0.00019592
0.000193668
0.000191254
0.000209357
0.000198446
0.000177325
0.000153823
0.000112364
5.13328e-05
6.80407e-06
5.22478e-08
1.26469e-09
1.79455e-06
3.15855e-05
0.000105073
0.000156953
0.000191239
0.000218798
0.000236094
0.000237672
0.000235034
0.000222311
0.000214754
0.000211966
0.000203951
0.000200809
0.00019532
0.000185054
0.000184654
0.000185031
0.000192747
0.000191091
0.000171396
0.000149126
0.000146408
0.000184597
0.00031014
0.000627851
0.000907077
0.000779435
0.000753338
0.00038511
0.000197038
0.000151383
0.000157381
0.000169067
0.000187342
0.000189887
0.000196521
0.000192628
0.000201889
0.000193973
0.000203318
0.000198195
0.000209835
0.000213203
0.000198543
0.000205588
0.00021384
0.000196159
0.00017666
0.000156179
0.000118232
5.08598e-05
6.6921e-06
5.05712e-08
1.26541e-09
1.79288e-06
3.21455e-05
0.000110792
0.000166867
0.000197932
0.000220224
0.000230687
0.000242519
0.000239154
0.00022707
0.000220572
0.000215884
0.000222308
0.000205971
0.000205901
0.000187575
0.000186229
0.000194321
0.000198457
0.000194931
0.000191231
0.000166314
0.000163587
0.000193578
0.000341025
0.000720697
0.00101144
0.000855589
0.000813205
0.000375642
0.000200411
0.000168007
0.000167783
0.000183775
0.000189344
0.000199192
0.000201085
0.000197172
0.000197769
0.000203878
0.000202803
0.000214077
0.000206327
0.000214974
0.000202937
0.000205822
0.000208189
0.000203302
0.00018679
0.000158503
0.000122146
5.55352e-05
6.57969e-06
4.92504e-08
1.30707e-09
1.87358e-06
3.54488e-05
0.000113038
0.000179784
0.000201646
0.000217895
0.000229478
0.000232122
0.000235781
0.000240154
0.000236652
0.000222878
0.000222974
0.000212207
0.000215656
0.000202151
0.000210144
0.000196131
0.000199501
0.000195941
0.000186209
0.000172742
0.000165882
0.000201309
0.000362629
0.000789991
0.00108793
0.000911352
0.000804104
0.000358789
0.000211728
0.000176115
0.00018824
0.000189638
0.000199567
0.000201438
0.000200632
0.000197787
0.000206252
0.000209189
0.000215685
0.000215716
0.000204983
0.000211415
0.000211306
0.000209596
0.000210159
0.000200086
0.000185824
0.000177041
0.000126643
5.574e-05
6.58639e-06
4.87777e-08
1.33671e-09
1.93245e-06
3.65466e-05
0.000123
0.000198062
0.000220524
0.000230534
0.000246488
0.000245814
0.00023667
0.000234898
0.000231889
0.000225409
0.000215418
0.000214866
0.000207415
0.000220251
0.00021081
0.000198674
0.000203089
0.000199734
0.000194955
0.000177661
0.000178006
0.000214118
0.00038227
0.000827225
0.00110481
0.000913629
0.000742604
0.000339497
0.000207942
0.000187269
0.000186097
0.000194491
0.000206729
0.000206557
0.000207205
0.000204611
0.000204902
0.000211542
0.000215622
0.000210226
0.000206338
0.000211142
0.000224888
0.000213809
0.000210562
0.000197217
0.000183804
0.000176731
0.000132085
5.79463e-05
6.53754e-06
4.79457e-08
1.33399e-09
1.96816e-06
3.79659e-05
0.000132567
0.000202312
0.000228232
0.000239797
0.000250699
0.000238288
0.000234097
0.000230704
0.000226156
0.000222221
0.000213255
0.000221712
0.000214596
0.000224641
0.000219909
0.000208084
0.00020467
0.000199179
0.000195331
0.000182811
0.000192129
0.000221236
0.000416881
0.000824147
0.00103479
0.000871833
0.000672544
0.000327894
0.000210557
0.000191551
0.000202393
0.000203426
0.000219476
0.000219287
0.000218816
0.000224557
0.000215263
0.000202105
0.00020659
0.000209566
0.000219919
0.000219361
0.000246948
0.000231886
0.00021914
0.00020544
0.000184623
0.000172612
0.000131465
5.53735e-05
6.45063e-06
4.69174e-08
1.2744e-09
1.90375e-06
3.65845e-05
0.000131316
0.000205609
0.000233426
0.000238591
0.00025346
0.000249363
0.000235333
0.000229024
0.00022344
0.000224987
0.000211985
0.000218333
0.000216318
0.000225064
0.000230002
0.000215535
0.000207139
0.000207155
0.000197562
0.0001858
0.000194103
0.000238839
0.00043324
0.000774707
0.000904267
0.000792031
0.000603034
0.000313858
0.000209806
0.000195473
0.00020563
0.000216889
0.000232752
0.000231114
0.000222736
0.000219464
0.000208276
0.000203621
0.000216192
0.000215168
0.000219408
0.00022445
0.000253434
0.000244555
0.00022621
0.000205265
0.000190432
0.000169912
0.000132472
5.56867e-05
6.62189e-06
4.61493e-08
1.17384e-09
1.75243e-06
3.33739e-05
0.000123168
0.000196828
0.000226482
0.000234811
0.000243342
0.00024275
0.000231848
0.000227433
0.000222917
0.000215626
0.000222342
0.000211646
0.000211428
0.000219364
0.000223649
0.000209442
0.000208372
0.000208607
0.000192973
0.000191253
0.000196514
0.000242887
0.000441762
0.000701556
0.000754414
0.000685367
0.00055209
0.000311064
0.000212009
0.000197928
0.000200524
0.000212128
0.000226057
0.000224677
0.000220502
0.000214215
0.000213563
0.000214087
0.000209982
0.00021461
0.000216201
0.000234249
0.000258702
0.000240561
0.000222775
0.000205656
0.00018836
0.000172887
0.000136618
5.74052e-05
6.64533e-06
4.55775e-08
1.10009e-09
1.64556e-06
3.15478e-05
0.000116422
0.00018876
0.000214972
0.000226474
0.00023826
0.000237607
0.000231258
0.000222986
0.000229977
0.000228209
0.000221169
0.000211438
0.000206201
0.000214411
0.000210462
0.000212646
0.000205015
0.000207431
0.000196524
0.000198529
0.000197905
0.000245549
0.000430395
0.000616663
0.000628041
0.000597716
0.000502241
0.000302977
0.000208414
0.000192525
0.000204756
0.000206118
0.000217932
0.00021773
0.000209591
0.00020574
0.00020423
0.000210331
0.000207063
0.000215686
0.000226053
0.00023239
0.000249455
0.000232812
0.000219751
0.000208934
0.000197272
0.000170748
0.000134237
5.59411e-05
6.41328e-06
4.44571e-08
1.04574e-09
1.5639e-06
2.94623e-05
0.000108626
0.00017487
0.000206007
0.000216582
0.00022687
0.000224882
0.000223782
0.000228979
0.000220313
0.000226286
0.000221233
0.000215978
0.000203883
0.000208448
0.000207979
0.000207565
0.000206848
0.000203974
0.000203257
0.000198135
0.000198309
0.000250324
0.000417605
0.000545098
0.000532191
0.000529047
0.000465627
0.000298222
0.000213537
0.000192026
0.000197622
0.000201252
0.000213561
0.000205349
0.00021252
0.000201855
0.000202407
0.000207164
0.000209741
0.000217683
0.000227201
0.000234041
0.000239768
0.000227287
0.000219469
0.00021066
0.00019585
0.000171839
0.000134311
5.87896e-05
6.27484e-06
4.38231e-08
1.01541e-09
1.51018e-06
2.91412e-05
0.000105494
0.000172171
0.000199871
0.000210712
0.00022206
0.000222023
0.000218972
0.000217136
0.000218649
0.00022028
0.000214944
0.000209275
0.000202763
0.000199526
0.000198678
0.00020008
0.000199641
0.000208638
0.000202083
0.000191143
0.000200591
0.000257029
0.00040342
0.000486455
0.000462636
0.000475417
0.000433791
0.000294132
0.000211839
0.000200442
0.000194385
0.000202683
0.000202624
0.00020297
0.000201352
0.000199234
0.000198477
0.000200405
0.000204958
0.000216266
0.000217378
0.000221734
0.000226892
0.000229506
0.000219178
0.000201778
0.000189635
0.000172025
0.000137395
5.56865e-05
6.34569e-06
4.41691e-08
1.0031e-09
1.47403e-06
2.7831e-05
0.000102257
0.000162358
0.00019041
0.000214602
0.000212677
0.000221383
0.000236097
0.000231963
0.00022078
0.000219791
0.00021087
0.000204719
0.000201485
0.00021136
0.000204148
0.000199695
0.000196338
0.000208671
0.000194615
0.000190427
0.00020922
0.000267384
0.000390255
0.000441151
0.00041248
0.000433149
0.000409776
0.00028693
0.000211108
0.000202462
0.000203154
0.000203492
0.00019963
0.0002021
0.000202794
0.000210837
0.00020768
0.000197163
0.000202076
0.000208473
0.000215543
0.000225382
0.0002252
0.000218388
0.000216236
0.000200266
0.000186522
0.000171238
0.000134421
5.58404e-05
6.48129e-06
4.51503e-08
1.01003e-09
1.48372e-06
2.82562e-05
0.000100803
0.000160403
0.000185157
0.000202875
0.000207925
0.000220709
0.000224337
0.000231216
0.00022904
0.000221611
0.00021202
0.000204805
0.00020796
0.000214012
0.000200531
0.000199843
0.000198441
0.00019839
0.000192115
0.000190262
0.000207545
0.000273606
0.000373856
0.000404604
0.000375416
0.000398718
0.000387494
0.000292714
0.000215787
0.000200189
0.000195575
0.000196073
0.000198831
0.000208293
0.000212243
0.000210061
0.000200403
0.000197826
0.000199878
0.000208463
0.000221248
0.000214006
0.000215964
0.000213061
0.00020735
0.000212753
0.000195203
0.000174887
0.000134841
5.61678e-05
6.53459e-06
4.61409e-08
1.05251e-09
1.56172e-06
3.01356e-05
0.000103314
0.000158789
0.000182644
0.000214711
0.000206823
0.000220111
0.000223172
0.000224658
0.000229249
0.000231463
0.000222085
0.000209202
0.000209158
0.000206576
0.000204693
0.00021618
0.000201503
0.000198733
0.000199315
0.000196291
0.000207463
0.000266679
0.000356886
0.000373588
0.000346452
0.000370124
0.000367592
0.000291331
0.000221742
0.000208335
0.000200276
0.000200138
0.000202963
0.000200672
0.000204464
0.000221019
0.000214868
0.000210313
0.000200772
0.000207743
0.000218269
0.000221886
0.000221436
0.000218331
0.000217813
0.000203525
0.000191812
0.000175348
0.00013523
5.78961e-05
6.79166e-06
4.77472e-08
1.09202e-09
1.61242e-06
3.00003e-05
0.000105587
0.00016386
0.000187898
0.000205588
0.000209111
0.000244472
0.000242101
0.000221488
0.0002211
0.000224727
0.000220813
0.000212593
0.000210402
0.000222695
0.000212241
0.000212439
0.000206663
0.00020192
0.000214132
0.000201624
0.000210745
0.000269861
0.000340225
0.00034824
0.000322373
0.000346822
0.000351203
0.000289143
0.000218678
0.000198631
0.000192741
0.000204771
0.000209059
0.000203663
0.000204427
0.00020954
0.000208192
0.00021419
0.000206466
0.000206322
0.000213124
0.000211912
0.000210365
0.000208168
0.000215589
0.000211841
0.000191707
0.000176548
0.000143529
5.81853e-05
6.86585e-06
4.90966e-08
1.13703e-09
1.66955e-06
3.21208e-05
0.000112547
0.000172172
0.000193329
0.000205666
0.000213285
0.000232577
0.000239189
0.000225199
0.000230535
0.000226937
0.000225062
0.000227836
0.000214209
0.000225579
0.000218304
0.000221474
0.000209852
0.000216351
0.00020622
0.0002057
0.000227714
0.000270147
0.000325228
0.000323224
0.000298881
0.000327158
0.000336054
0.000284801
0.00021804
0.000209066
0.00019917
0.000203483
0.00020663
0.000204606
0.000223689
0.000210752
0.000226146
0.000231569
0.00021753
0.000208679
0.000226836
0.000215171
0.000211406
0.000209173
0.000211161
0.000209032
0.000193467
0.000179517
0.000144067
5.96573e-05
6.97409e-06
5.04915e-08
1.1693e-09
1.71039e-06
3.25858e-05
0.000113993
0.000176079
0.000197728