/*--------------------------------*- C++ -*----------------------------------*\
  =========                 |
  \\      /  F ield         | OpenFOAM: The Open Source CFD Toolbox
   \\    /   O peration     | Website:  https://openfoam.org
    \\  /    A nd           | Version:  7
     \\/     M anipulation  |
\*---------------------------------------------------------------------------*/
FoamFile
{
    version     2.0;
    format      ascii;
    class       volScalarField;
    location    "20";
    object      p;
}
// * * * * * * * * * * * * * * * * * * * * * * * * * * * * * * * * * * * * * //

dimensions      [0 2 -2 0 0 0 0];

internalField   nonuniform List<scalar> 
17475
(
0.724403
0.410496
0.321625
0.283281
0.260934
0.246194
0.23582
0.22828
0.222731
0.21866
0.215728
0.213698
0.212398
0.211693
0.211475
0.211652
0.212144
0.212878
0.213786
0.214807
0.215881
0.216954
0.217972
0.218888
0.219664
0.220266
0.220667
0.220848
0.220802
0.220532
0.22005
0.219377
0.218544
0.217589
0.216556
0.215498
0.214468
0.213527
0.212739
0.212172
0.211903
0.212013
0.212596
0.21376
0.215641
0.21841
0.222294
0.227612
0.234829
0.244654
0.258223
0.277406
0.305084
0.347561
0.369815
0.28614
0.305899
0.288769
0.269789
0.253981
0.242023
0.233058
0.226323
0.221275
0.217536
0.214837
0.212979
0.211812
0.211214
0.211086
0.211343
0.211906
0.212706
0.213678
0.214758
0.215888
0.217011
0.218077
0.219036
0.219849
0.220477
0.220894
0.221082
0.221034
0.22075
0.220245
0.21954
0.218668
0.217666
0.216582
0.215467
0.214376
0.21337
0.212513
0.211872
0.211521
0.211539
0.212014
0.213047
0.214762
0.21731
0.22089
0.225767
0.232317
0.241084
0.252894
0.269055
0.291607
0.327517
0.337578
0.251629
0.248082
0.247777
0.243299
0.23703
0.230738
0.225156
0.220529
0.216862
0.214073
0.212058
0.210715
0.209954
0.209689
0.209846
0.210354
0.211147
0.212162
0.213336
0.214609
0.21592
0.217213
0.218432
0.219528
0.220451
0.221164
0.221634
0.221845
0.221787
0.221461
0.220883
0.220077
0.219078
0.217928
0.216678
0.215381
0.214096
0.212884
0.211806
0.210931
0.210323
0.210052
0.210192
0.210822
0.21203
0.213914
0.216589
0.220181
0.224823
0.230631
0.237623
0.245492
0.252676
0.258682
0.248779
0.210363
0.217698
0.222516
0.222281
0.2203
0.217703
0.215003
0.212529
0.210458
0.208865
0.207768
0.207152
0.206984
0.207222
0.207821
0.208729
0.209894
0.211261
0.212772
0.214368
0.215987
0.217569
0.219055
0.220382
0.221496
0.222356
0.222922
0.223173
0.223098
0.222699
0.221994
0.221013
0.219796
0.218393
0.21686
0.215258
0.213649
0.212095
0.210659
0.209407
0.208394
0.207677
0.207311
0.207346
0.20783
0.2088
0.210281
0.212268
0.214695
0.217384
0.219946
0.221627
0.22056
0.214709
0.200268
0.187985
0.194934
0.201353
0.204114
0.20498
0.204858
0.204265
0.203547
0.202914
0.202497
0.202369
0.202564
0.203093
0.203946
0.205103
0.206532
0.208195
0.210043
0.212023
0.214078
0.216141
0.218148
0.220022
0.221693
0.223096
0.224176
0.224888
0.2252
0.225098
0.224589
0.223693
0.222447
0.220905
0.219127
0.21718
0.215137
0.213065
0.211029
0.209104
0.207344
0.2058
0.204516
0.203527
0.202858
0.202522
0.202511
0.202791
0.203286
0.203851
0.204241
0.204051
0.202672
0.19882
0.190839
0.180621
0.173544
0.178276
0.184142
0.188327
0.190977
0.19258
0.193554
0.19422
0.194794
0.195423
0.196207
0.197209
0.198463
0.199987
0.201776
0.203817
0.206082
0.208531
0.211114
0.21377
0.216433
0.219013
0.221422
0.223575
0.225387
0.226784
0.227704
0.228105
0.227968
0.227299
0.226129
0.224509
0.222509
0.220209
0.217696
0.215058
0.212371
0.209716
0.207172
0.204789
0.202612
0.200675
0.198999
0.197588
0.19643
0.195491
0.194706
0.193973
0.193136
0.191962
0.190134
0.187271
0.182669
0.175546
0.168986
0.162576
0.165776
0.170659
0.175208
0.178674
0.181259
0.18326
0.184924
0.186433
0.187926
0.189507
0.191251
0.193209
0.195412
0.197874
0.200593
0.20355
0.206714
0.210035
0.213459
0.216888
0.220221
0.223352
0.226165
0.228546
0.230391
0.231608
0.232138
0.231951
0.231056
0.229504
0.227361
0.224733
0.221729
0.218464
0.21505
0.211579
0.208163
0.204876
0.201769
0.198884
0.196245
0.193862
0.191726
0.189806
0.188054
0.186395
0.18472
0.182889
0.180718
0.177975
0.174444
0.169827
0.164008
0.159615
0.153306
0.155677
0.159735
0.164132
0.167823
0.170848
0.173426
0.175733
0.177909
0.180071
0.182313
0.184713
0.187325
0.190191
0.19334
0.196781
0.200513
0.204508
0.208728
0.21309
0.217496
0.221818
0.225916
0.229635
0.232811
0.23529
0.236933
0.237651
0.237397
0.236185
0.234087
0.231216
0.227724
0.223769
0.219513
0.215099
0.210653
0.206315
0.202157
0.198233
0.194581
0.191217
0.188137
0.185319
0.182726
0.180296
0.177952
0.175599
0.173118
0.170369
0.167181
0.163421
0.159014
0.154188
0.150968
0.144845
0.146728
0.150152
0.15422
0.157858
0.161021
0.163878
0.166563
0.169179
0.171822
0.174578
0.177522
0.180718
0.184215
0.188051
0.19225
0.196818
0.20177
0.207036
0.212542
0.218189
0.22381
0.229213
0.234186
0.238489
0.241884
0.244153
0.24515
0.2448
0.243125
0.24024
0.236328
0.231631
0.226381
0.22081
0.215103
0.209456
0.204017
0.198855
0.194031
0.18957
0.185476
0.181731
0.178299
0.175132
0.172163
0.169318
0.166509
0.16364
0.160597
0.157255
0.153496
0.14941
0.145513
0.143087
0.136682
0.138216
0.141131
0.144822
0.148292
0.151435
0.154392
0.157267
0.160145
0.163109
0.166238
0.169603
0.173276
0.177321
0.181798
0.186746
0.192229
0.198225
0.204701
0.21159
0.218784
0.226112
0.233294
0.240029
0.245963
0.25072
0.253936
0.255362
0.254866
0.252491
0.248432
0.242995
0.236578
0.229541
0.222207
0.214846
0.207734
0.200991
0.194702
0.188911
0.183628
0.178831
0.174484
0.17053
0.166905
0.163542
0.160354
0.157266
0.154192
0.151051
0.147731
0.144119
0.140304
0.136963
0.135057
0.128519
0.129769
0.132238
0.135539
0.138788
0.141827
0.144764
0.14769
0.150681
0.153813
0.157163
0.160811
0.164837
0.169323
0.174352
0.180005
0.186361
0.193452
0.201276
0.209795
0.21891
0.228454
0.238077
0.247332
0.255689
0.262539
0.267246
0.269357
0.26863
0.265146
0.259258
0.251526
0.242597
0.233055
0.22335
0.213919
0.205029
0.196795
0.189287
0.182514
0.176446
0.171025
0.166177
0.161818
0.157873
0.154258
0.1509
0.147712
0.14461
0.141513
0.138324
0.134928
0.131439
0.128575
0.127013
0.120179
0.121177
0.12323
0.126135
0.129126
0.131999
0.134822
0.137679
0.140644
0.143791
0.1472
0.15096
0.155165
0.159921
0.165333
0.171562
0.17869
0.18682
0.19605
0.206397
0.217816
0.230169
0.243141
0.256062
0.268125
0.278323
0.285514
0.288781
0.287667
0.282315
0.27344
0.262118
0.249459
0.236353
0.223535
0.211554
0.200594
0.19075
0.182023
0.174344
0.167606
0.161706
0.156516
0.151947
0.147886
0.14422
0.140855
0.137703
0.134685
0.131727
0.128744
0.125635
0.122519
0.120073
0.118793
0.111621
0.112405
0.114055
0.11653
0.119208
0.121842
0.124457
0.127124
0.129917
0.132913
0.136194
0.139857
0.144012
0.148791
0.154342
0.160853
0.168489
0.177448
0.187931
0.200144
0.214163
0.229958
0.24735
0.265632
0.283519
0.299343
0.310916
0.316294
0.314476
0.305774
0.291752
0.274593
0.256268
0.238189
0.221442
0.206442
0.193271
0.181877
0.172096
0.163726
0.156588
0.15051
0.145291
0.140768
0.136798
0.133261
0.130055
0.127088
0.124282
0.121563
0.118859
0.116094
0.113395
0.111362
0.110349
0.102846
0.103444
0.104718
0.106744
0.109043
0.111344
0.113636
0.115978
0.118441
0.1211
0.124038
0.127354
0.13117
0.13562
0.140934
0.147287
0.154931
0.164197
0.175451
0.189099
0.205612
0.225243
0.248111
0.273959
0.301159
0.326846
0.34676
0.356327
0.353105
0.337895
0.314424
0.287489
0.260573
0.235968
0.214606
0.196484
0.181349
0.168809
0.158481
0.150004
0.142999
0.137158
0.132245
0.128063
0.124444
0.121271
0.118424
0.115802
0.113347
0.110981
0.108645
0.106294
0.104061
0.102419
0.101596
0.0938752
0.094339
0.095279
0.0968339
0.0986672
0.100531
0.102383
0.104266
0.106238
0.108365
0.110723
0.113402
0.116521
0.120242
0.124776
0.130332
0.137218
0.145845
0.156769
0.170706
0.188517
0.211291
0.240028
0.275368
0.316943
0.36058
0.397745
0.41658
0.410224
0.38092
0.339024
0.295679
0.2568
0.224684
0.198894
0.178502
0.162545
0.150109
0.140339
0.132569
0.126358
0.121305
0.117173
0.113726
0.110792
0.108245
0.105975
0.103893
0.101935
0.10004
0.0981661
0.0963032
0.0945864
0.0933823
0.0927726
0.0847758
0.0851265
0.0857644
0.0868386
0.0881445
0.089479
0.090782
0.0920745
0.0933972
0.0947982
0.0963337
0.0980788
0.100135
0.10266
0.1058
0.109766
0.114849
0.121474
0.130249
0.142067
0.158264
0.180759
0.212391
0.256298
0.316244
0.391899
0.467465
0.509077
0.495056
0.432198
0.353085
0.284479
0.232838
0.195192
0.168136
0.148809
0.13482
0.124524
0.116819
0.110988
0.106499
0.102986
0.100178
0.0978567
0.0959363
0.0942812
0.0927999
0.0914153
0.0900862
0.0887822
0.0874666
0.0861578
0.0849841
0.0841843
0.0837579
0.0756044
0.075848
0.0761856
0.0767663
0.0775117
0.0782614
0.0789387
0.0795408
0.0800862
0.0806005
0.0811136
0.0816736
0.0823414
0.0832043
0.0843249
0.085862
0.0879779
0.0909303
0.0951886
0.101399
0.110633
0.125072
0.148496
0.187356
0.253829
0.372071
0.533996
0.638236
0.603261
0.454431
0.306256
0.217511
0.166254
0.135221
0.116363
0.104558
0.0968352
0.0915667
0.0880109
0.0855275
0.0836975
0.0824137
0.0814644
0.0807098
0.0801064
0.0795743
0.079065
0.0785419
0.0779804
0.077356
0.0766654
0.0759475
0.0753151
0.0749136
0.0746556
0.0660782
0.0661647
0.0662686
0.0665002
0.066776
0.0669491
0.0669562
0.0667933
0.0664681
0.0659847
0.0653445
0.064552
0.0636047
0.0624884
0.0611709
0.0596569
0.0579045
0.055831
0.0533386
0.0502127
0.0461455
0.0409401
0.0341524
0.0252999
0.00895499
0.100427
0.362564
0.236894
0.0738196
0.0233832
0.0316448
0.0372697
0.0426899
0.0469455
0.05042
0.0531428
0.0554465
0.0573959
0.0590649
0.0605219
0.0617784
0.0628567
0.063771
0.0645212
0.065107
0.0655302
0.0657927
0.0658971
0.0658592
0.0657283
0.0656097
0.0656053
0.0655793
0.0550781
0.0553025
0.0558502
0.0563068
0.0563506
0.0559519
0.0552366
0.0542499
0.0530227
0.0515209
0.0497011
0.0474744
0.0447927
0.0415998
0.0377637
0.0330949
0.0273075
0.0199535
0.0102702
-0.00304469
-0.0224302
-0.0525999
-0.102986
-0.196786
-0.331815
-0.443599
-0.274354
-0.142554
-0.0761998
-0.0376285
-0.0137315
0.0022767
0.0136765
0.0222064
0.0288289
0.0341328
0.0384601
0.0420283
0.0449948
0.0475094
0.0496056
0.051329
0.0527422
0.0538453
0.0546871
0.0552993
0.0556802
0.0558059
0.0557311
0.0555622
0.049082
0.0487498
0.0482021
0.0469703
0.0455703
0.0442584
0.0428778
0.041236
0.0391835
0.0366991
0.0337013
0.0301357
0.0258806
0.0208003
0.0147107
0.00732222
-0.00176942
-0.0131615
-0.0277367
-0.0469502
-0.0731975
-0.110726
-0.167468
-0.253382
-0.344578
-0.314083
-0.214272
-0.142201
-0.0951306
-0.0630852
-0.0400377
-0.0228142
-0.00953561
0.000965508
0.0094361
0.0163769
0.022147
0.0269755
0.0309858
0.0343362
0.0371365
0.0394479
0.0413451
0.0428593
0.0440424
0.0450058
0.045741
0.0459586
0.0457477
0.0379816
0.0380599
0.0381142
0.0378682
0.0370357
0.0355759
0.0335892
0.0311481
0.0282447
0.0248119
0.0207747
0.0160055
0.0103194
0.00352529
-0.00455242
-0.0142752
-0.0260749
-0.0405067
-0.0583724
-0.0807019
-0.108787
-0.144262
-0.1884
-0.234859
-0.2536
-0.267697
-0.284601
-0.262132
-0.222662
-0.173284
-0.131565
-0.0986936
-0.0727534
-0.0521192
-0.03557
-0.0221375
-0.0111169
-0.0019923
0.0056196
0.0119977
0.0173566
0.0218879
0.0257294
0.028982
0.031735
0.0340356
0.0358823
0.0372376
0.0380782
0.0384784
0.0385736
0.0307521
0.0307709
0.0301973
0.0291583
0.0276392
0.0255781
0.022991
0.0198866
0.0162344
0.0119638
0.00698019
0.00118264
-0.00562694
-0.0137683
-0.023421
-0.0348747
-0.0484972
-0.0646938
-0.084004
-0.106892
-0.133543
-0.16394
-0.197415
-0.226453
-0.234697
-0.235377
-0.236666
-0.233822
-0.238759
-0.246593
-0.248378
-0.245247
-0.224863
-0.188153
-0.153822
-0.124041
-0.0984834
-0.0767975
-0.0586827
-0.0434932
-0.0307086
-0.0199909
-0.0109576
-0.00331161
0.00317764
0.00870131
0.0134065
0.017421
0.0208458
0.0237589
0.0261966
0.0281297
0.0295139
0.030334
0.0305232
0.0237138
0.0238757
0.0231947
0.0216431
0.0194737
0.0168447
0.013789
0.0102482
0.00613138
0.00133219
-0.00426666
-0.0107801
-0.0183473
-0.0272746
-0.0378075
-0.0501796
-0.0646561
-0.0815544
-0.101199
-0.123821
-0.149484
-0.177956
-0.208065
-0.231126
-0.238659
-0.242461
-0.243122
-0.240081
-0.241922
-0.247572
-0.249576
-0.246626
-0.229403
-0.197594
-0.166667
-0.138903
-0.114346
-0.092938
-0.0744868
-0.0586819
-0.0451536
-0.0336306
-0.023791
-0.0153652
-0.00818917
-0.00205228
0.00319698
0.00769731
0.0115577
0.0148767
0.0177368
0.0201357
0.0219626
0.0230132
0.0231327
0.0166539
0.0167814
0.016174
0.0146094
0.0122704
0.00939679
0.00607777
0.0022687
-0.00213232
-0.00724249
-0.0131976
-0.0201487
-0.0282479
-0.0376589
-0.0486516
-0.0614263
-0.0762611
-0.0934415
-0.113267
-0.136035
-0.161949
-0.191057
-0.222351
-0.246737
-0.256291
-0.260754
-0.25963
-0.253256
-0.251207
-0.255012
-0.256815
-0.252902
-0.23568
-0.205803
-0.175852
-0.148843
-0.12481
-0.103694
-0.0852921
-0.0693383
-0.0555878
-0.0437284
-0.033529
-0.0247429
-0.0171815
-0.0106822
-0.00509729
-0.000288408
0.00385941
0.00745407
0.0105727
0.013185
0.0151123
0.0161228
0.0162035
0.0102426
0.0103604
0.00976266
0.00822225
0.00584593
0.00287157
-0.000588503
-0.00456074
-0.00913731
-0.0144308
-0.0205672
-0.0276901
-0.0359463
-0.0455044
-0.0566151
-0.069455
-0.0843128
-0.101505
-0.121402
-0.144417
-0.171054
-0.201949
-0.236274
-0.264715
-0.277561
-0.2823
-0.279869
-0.270616
-0.265099
-0.267274
-0.268635
-0.262929
-0.24405
-0.213422
-0.182619
-0.155271
-0.131402
-0.110581
-0.0924502
-0.076689
-0.0630144
-0.0511566
-0.040896
-0.0320128
-0.0243215
-0.0176841
-0.0119435
-0.00697017
-0.00266063
0.00108641
0.0043257
0.00700221
0.00891262
0.00988117
0.00996809
0.00462049
0.00475089
0.00418211
0.00269456
0.000360746
-0.00260834
-0.00609366
-0.0100998
-0.0147038
-0.0200047
-0.026115
-0.0331661
-0.0412952
-0.0506581
-0.0615009
-0.0740378
-0.0885249
-0.105317
-0.12482
-0.147578
-0.174374
-0.206021
-0.242091
-0.273868
-0.290236
-0.295774
-0.293086
-0.282978
-0.275579
-0.276286
-0.276776
-0.269535
-0.248257
-0.216092
-0.184497
-0.157079
-0.133504
-0.113243
-0.0957042
-0.0804831
-0.06726
-0.0557644
-0.045771
-0.0370859
-0.0295355
-0.0229733
-0.0172697
-0.0123065
-0.00798529
-0.00422153
-0.000980499
0.0016621
0.00350627
0.00440972
0.00446258
-0.000136562
4.00828e-05
-0.000462805
-0.00185563
-0.00407669
-0.00694431
-0.0103327
-0.014233
-0.0187014
-0.0238235
-0.0296961
-0.036433
-0.0441618
-0.0530331
-0.0632406
-0.0750439
-0.0886634
-0.104427
-0.122755
-0.14424
-0.169606
-0.199834
-0.234722
-0.267191
-0.286176
-0.292576
-0.289749
-0.280207
-0.272564
-0.272504
-0.272459
-0.263859
-0.241322
-0.209484
-0.178688
-0.152467
-0.130198
-0.111146
-0.0947605
-0.0805565
-0.0682035
-0.0574384
-0.048047
-0.0398494
-0.0326919
-0.0264398
-0.0209768
-0.0162001
-0.0120239
-0.00838065
-0.0052562
-0.00273119
-0.00098984
-0.000150295
-0.000138567
-0.00405739
-0.00384438
-0.00425866
-0.00549439
-0.00751804
-0.0101732
-0.013341
-0.016995
-0.0211726
-0.0259424
-0.0313835
-0.0375896
-0.0446717
-0.052754
-0.0619897
-0.0726074
-0.0848131
-0.0988668
-0.115147
-0.134108
-0.156402
-0.18291
-0.213579
-0.243112
-0.262283
-0.268746
-0.265363
-0.256807
-0.250065
-0.250366
-0.250633
-0.241638
-0.220045
-0.191499
-0.164236
-0.140909
-0.121207
-0.104318
-0.089739
-0.077091
-0.0660434
-0.0563715
-0.0478908
-0.0404475
-0.0339125
-0.0281727
-0.0231306
-0.018701
-0.0148122
-0.0114158
-0.00851418
-0.00619283
-0.00462166
-0.00390524
-0.00396062
-0.00718388
-0.00693373
-0.007237
-0.00828037
-0.010043
-0.0124007
-0.0152427
-0.0185296
-0.0222812
-0.0265466
-0.0313882
-0.0368756
-0.0430917
-0.0501331
-0.0581127
-0.0671793
-0.0775129
-0.0892935
-0.102761
-0.11823
-0.13616
-0.157139
-0.181025
-0.20426
-0.220149
-0.225252
-0.221386
-0.213879
-0.208563
-0.209788
-0.21083
-0.203508
-0.18603
-0.163577
-0.142075
-0.123391
-0.107325
-0.0933998
-0.0812568
-0.0706153
-0.0612485
-0.052972
-0.0456536
-0.0391791
-0.0334515
-0.0283871
-0.0239116
-0.019961
-0.0164815
-0.0134407
-0.0108556
-0.00881788
-0.00747219
-0.00689783
-0.00701464
-0.0095616
-0.00928133
-0.00946999
-0.0102976
-0.0117551
-0.013749
-0.0161805
-0.0190038
-0.0222216
-0.0258635
-0.0299721
-0.0345951
-0.0397845
-0.045604
-0.0521209
-0.059415
-0.067585
-0.076718
-0.0869412
-0.0984102
-0.111322
-0.125906
-0.141859
-0.156957
-0.167076
-0.169414
-0.16495
-0.158383
-0.154706
-0.156947
-0.159251
-0.15533
-0.144231
-0.129493
-0.114878
-0.101701
-0.0899705
-0.0795131
-0.0701836
-0.0618529
-0.0544082
-0.0477272
-0.0417413
-0.0363847
-0.0315983
-0.02733
-0.0235325
-0.0201621
-0.0171837
-0.0145821
-0.0123856
-0.0106839
-0.00959295
-0.00917517
-0.00934835
-0.0112646
-0.0109684
-0.0110502
-0.0116494
-0.0127665
-0.0143463
-0.0163053
-0.0185934
-0.0212004
-0.0241394
-0.0274332
-0.0311079
-0.0351841
-0.0396884
-0.0446441
-0.050071
-0.0559853
-0.0624146
-0.0693623
-0.0768103
-0.0847403
-0.0930889
-0.101424
-0.108456
-0.112098
-0.11097
-0.105877
-0.100183
-0.0979611
-0.101018
-0.104728
-0.105027
-0.100798
-0.0937327
-0.085883
-0.078184
-0.0708628
-0.0639688
-0.0575542
-0.0516167
-0.0461605
-0.0411652
-0.0365905
-0.0324268
-0.028655
-0.0252535
-0.0222017
-0.0194774
-0.0170636
-0.0149595
-0.0132013
-0.0118701
-0.0110597
-0.010797
-0.0110141
-0.0123583
-0.0120581
-0.0120395
-0.012402
-0.0131679
-0.0143067
-0.0157568
-0.0174708
-0.01943
-0.0216318
-0.0240817
-0.026783
-0.0297342
-0.0329279
-0.0363473
-0.0399656
-0.0437461
-0.0476319
-0.05155
-0.0553686
-0.0589096
-0.0619267
-0.0639702
-0.064339
-0.0623326
-0.0579598
-0.0522893
-0.0474123
-0.0463165
-0.0497492
-0.0548933
-0.059087
-0.0607546
-0.0600911
-0.0579767
-0.055056
-0.0516864
-0.048075
-0.0443788
-0.0407345
-0.0371963
-0.0338333
-0.0306564
-0.0276838
-0.0249372
-0.0224226
-0.0201418
-0.0180929
-0.016274
-0.0146988
-0.013406
-0.012462
-0.0119316
-0.0118182
-0.0120683
-0.0128708
-0.0125674
-0.0124609
-0.0126085
-0.0130303
-0.0137278
-0.0146641
-0.0158017
-0.0171164
-0.0185941
-0.0202227
-0.0219866
-0.0238649
-0.0258249
-0.0278222
-0.0297995
-0.0316784
-0.0333605
-0.0347049
-0.0355263
-0.0355661
-0.0345031
-0.0319457
-0.0275615
-0.0214838
-0.0146844
-0.00856428
-0.00447909
-0.00406331
-0.00757526
-0.0139352
-0.0210522
-0.0269682
-0.0309303
-0.0331085
-0.0339218
-0.0337521
-0.0328905
-0.0315502
-0.0299148
-0.0281198
-0.0262414
-0.0243625
-0.0225175
-0.0207517
-0.0190956
-0.0175702
-0.0161893
-0.0149674
-0.0139263
-0.0131027
-0.012546
-0.0122835
-0.0123038
-0.0125821
-0.0128898
-0.012584
-0.0123955
-0.0123423
-0.0124459
-0.0127211
-0.0131642
-0.0137506
-0.0144534
-0.0152494
-0.0161136
-0.017018
-0.0179264
-0.0187915
-0.0195502
-0.0201238
-0.0204129
-0.020292
-0.0196026
-0.0181399
-0.0156358
-0.0117642
-0.00622452
0.00107516
0.0095604
0.0177586
0.0240609
0.0275834
0.0276757
0.0240556
0.0169262
0.00806344
-0.000386017
-0.00722751
-0.0122482
-0.0156906
-0.0178906
-0.0191466
-0.0196953
-0.0197166
-0.0193799
-0.018803
-0.0180684
-0.0172379
-0.0163663
-0.0155037
-0.0146862
-0.0139398
-0.0132895
-0.0127624
-0.0123898
-0.0121974
-0.0121857
-0.0123248
-0.0126221
-0.0124842
-0.0121899
-0.0119285
-0.0116919
-0.0114973
-0.0113854
-0.0113753
-0.0114554
-0.0116016
-0.0117849
-0.0119729
-0.0121278
-0.0122033
-0.0121413
-0.0118709
-0.0113051
-0.0103357
-0.00883643
-0.00664804
-0.00357964
0.000599999
0.00616766
0.013351
0.0220738
0.0315671
0.0401932
0.0463403
0.0494458
0.0493244
0.0456526
0.038338
0.0288563
0.0193043
0.0110143
0.00438269
-0.000700184
-0.00449368
-0.00725384
-0.00920393
-0.0105198
-0.0113465
-0.0118278
-0.0120499
-0.0120924
-0.0120026
-0.011843
-0.0116606
-0.0114914
-0.0113667
-0.0113156
-0.0113591
-0.0114989
-0.0117057
-0.0119493
-0.01226
-0.0117088
-0.0114188
-0.0111012
-0.0107168
-0.0102701
-0.00982191
-0.0094112
-0.00904515
-0.00870598
-0.0083618
-0.00797461
-0.0075007
-0.00688727
-0.00607459
-0.00499029
-0.00354765
-0.00164495
0.000836111
0.00403524
0.00811969
0.0132675
0.0196727
0.0274883
0.0365538
0.0460406
0.0543617
0.0600596
0.0627518
0.0624615
0.0589059
0.0518997
0.042644
0.0330252
0.0243359
0.017032
0.0111014
0.00637065
0.00264209
-0.000267905
-0.00251506
-0.00422791
-0.00552104
-0.00651083
-0.00726382
-0.00783206
-0.00826892
-0.00863479
-0.00896983
-0.0093094
-0.00968091
-0.0100923
-0.0105201
-0.0109171
-0.011248
-0.0115623
-0.0106401
-0.0103669
-0.0100183
-0.00951431
-0.00885942
-0.00812495
-0.0073735
-0.00662939
-0.00588078
-0.00509629
-0.00423587
-0.00325333
-0.00209641
-0.000704891
0.000989553
0.003064
0.0056089
0.00872603
0.0125305
0.0171492
0.022718
0.0293579
0.037118
0.0458183
0.0546847
0.0622686
0.0673277
0.0695872
0.0691816
0.065881
0.0594887
0.0509759
0.0419406
0.0335269
0.0261957
0.0200008
0.0148404
0.0105788
0.00708043
0.00422043
0.00188785
-9.54484e-06
-0.00156839
-0.00287153
-0.00396719
-0.00489456
-0.00571451
-0.006474
-0.00720891
-0.00794115
-0.00866534
-0.00933635
-0.009883
-0.0102795
-0.0105879
-0.00936265
-0.00911431
-0.00874325
-0.00814787
-0.00732894
-0.00636272
-0.00533423
-0.00428165
-0.00320002
-0.00206261
-0.000828855
0.000546048
0.00211164
0.0039235
0.00604216
0.00853448
0.0114755
0.0149461
0.0190345
0.0238318
0.0294254
0.0358892
0.0432313
0.0511943
0.0590796
0.0657191
0.0700501
0.0718981
0.0714096
0.0684341
0.0628276
0.0553056
0.0471804
0.0394235
0.0324645
0.0263954
0.0211709
0.0167091
0.0129184
0.0097052
0.00698393
0.00467704
0.00271583
0.00102173
-0.000476445
-0.00179117
-0.00297351
-0.00407618
-0.00513306
-0.00615938
-0.00713659
-0.00800203
-0.0086682
-0.00910533
-0.00940656
-0.00790428
-0.00767689
-0.00730251
-0.00665042
-0.0057117
-0.0045764
-0.00333795
-0.00204761
-0.000710674
0.0006955
0.00220765
0.00386735
0.0057196
0.00781182
0.0101967
0.0129292
0.0160674
0.0196729
0.0238068
0.0285304
0.0339
0.0399475
0.0466164
0.0536659
0.0604973
0.0661389
0.0698047
0.0712751
0.0707495
0.0681378
0.0633117
0.0568278
0.0497245
0.0427967
0.0364251
0.0307194
0.0256778
0.021253
0.0173915
0.0140297
0.0111052
0.00855615
0.00632789
0.00436768
0.00260133
0.000998519
-0.000458841
-0.00182428
-0.00313083
-0.00438652
-0.005558
-0.00656813
-0.00732227
-0.00778482
-0.00807173
-0.00633714
-0.00613372
-0.00575621
-0.00507233
-0.00405758
-0.00280668
-0.00141889
4.17589e-05
0.00156239
0.00315925
0.0048633
0.00671127
0.00874259
0.0109978
0.0135184
0.0163479
0.0195296
0.0231082
0.0271241
0.0316143
0.0366021
0.0420838
0.048001
0.0541406
0.0599762
0.0647109
0.0677058
0.0688689
0.0683213
0.0660532
0.0619652
0.0564691
0.0503701
0.0443084
0.038613
0.0333983
0.0286845
0.0244552
0.0206802
0.0173215
0.0143366
0.0116797
0.00930849
0.00718197
0.00525105
0.00345693
0.00180189
0.00024894
-0.00123605
-0.002651
-0.00395239
-0.00504781
-0.00584327
-0.00631834
-0.00658909
-0.00469792
-0.00451951
-0.00415221
-0.00345311
-0.00239927
-0.00107912
0.000400967
0.00197001
0.00360794
0.005324
0.00714362
0.00909761
0.0112186
0.0135394
0.0160925
0.0189106
0.0220253
0.0254659
0.0292553
0.0334087
0.0379326
0.0428161
0.0479914
0.0532493
0.0581558
0.0620987
0.0645872
0.0655136
0.0650325
0.0630417
0.0595452
0.0549241
0.049742
0.0445055
0.0394937
0.034815
0.0305053
0.0265629
0.0229771
0.0197269
0.0167854
0.0141231
0.0117064
0.00950294
0.00748202
0.00558423
0.00380206
0.00212681
0.000524932
-0.000997962
-0.00238871
-0.00354913
-0.00437179
-0.00484482
-0.00508148
-0.00300606
-0.00284796
-0.00249889
-0.00181215
-0.000758151
0.000586248
0.00210666
0.00372841
0.00542454
0.00719751
0.0090666
0.0110577
0.0131958
0.0155064
0.0180148
0.0207448
0.0237166
0.0269462
0.0304443
0.0342185
0.0382656
0.0425613
0.0470279
0.0514954
0.0556174
0.0589023
0.0609421
0.0616572
0.0611457
0.059458
0.0567131
0.0527038
0.048316
0.0438193
0.0394479
0.0353
0.0314154
0.0278055
0.0244683
0.0213946
0.0185686
0.0159727
0.0135835
0.0113752
0.00932692
0.00740708
0.00556153
0.00381094
0.00214731
0.000571888
-0.000855351
-0.00202991
-0.00285097
-0.00330367
-0.00352353
-0.00133045
-0.00119523
-0.000867952
-0.000205578
0.000831836
0.00216614
0.0036845
0.00531229
0.00701674
0.00879493
0.0106598
0.0126316
0.0147301
0.0169746
0.0193834
0.0219719
0.0247513
0.0277318
0.0309179
0.0343088
0.0378904
0.0416349
0.045478
0.0492712
0.0527264
0.0554505
0.0571231
0.0576837
0.0572139
0.0557357
0.0532398
0.0500065
0.0464138
0.0425619
0.0387724
0.0351234
0.0316571
0.0283899
0.0253265
0.0224659
0.0198015
0.0173208
0.0150111
0.012852
0.0108262
0.00891682
0.00708443
0.00531069
0.00363105
0.00204911
0.000626141
-0.000535015
-0.0013347
-0.00177002
-0.00196996
0.000312251
0.000424381
0.000725314
0.00135514
0.0023536
0.00364727
0.0051289
0.0067239
0.00839524
0.0101358
0.0119538
0.013864
0.0158811
0.0180196
0.020291
0.022705
0.02527
0.0279903
0.0308634
0.0338822
0.037033
0.0402884
0.0435882
0.0468029
0.0496975
0.0519588
0.0533404
0.0537868
0.0533667
0.0521171
0.0500372
0.0472751
0.0441303
0.040913
0.0376914
0.0344947
0.03142
0.0284864
0.0257027
0.0230716
0.0205916
0.0182584
0.0160613
0.0139889
0.0120269
0.0101618
0.00837726
0.00663579
0.00497442
0.00342252
0.00203459
0.000912428
0.000147117
-0.000263343
-0.000438639
0.00188845
0.00198036
0.0022576
0.00284938
0.00379426
0.00502211
0.00643904
0.00796902
0.0095743
0.0112437
0.012982
0.0147998
0.0167068
0.0187122
0.0208248
0.0230518
0.025396
0.0278559
0.0304276
0.0331031
0.0358668
0.0386912
0.0415202
0.0442444
0.0466726
0.0485562
0.0497028
0.0500661
0.0497006
0.04864
0.0468939
0.0445756
0.0418995
0.0390773
0.0362662
0.0335508
0.0308496
0.0282319
0.0257194
0.0233195
0.0210347
0.0188637
0.0168015
0.0148405
0.0129697
0.0111799
0.00946309
0.0077985
0.00618824
0.00468825
0.00335857
0.00229366
0.00157355
0.00119294
0.00104332
0.00340073
0.00347277
0.00372614
0.00427078
0.00514432
0.00628805
0.00761605
0.00905611
0.0105701
0.0121448
0.0137809
0.0154846
0.0172632
0.019123
0.0210693
0.0231046
0.0252288
0.0274402
0.0297324
0.0320954
0.0345134
0.0369591
0.0393836
0.0416938
0.0437338
0.0453081
0.0462667
0.046569
0.0462582
0.0453609
0.0438906
0.0419395
0.0396746
0.0372561
0.0347881
0.0323452
0.0299794
0.0277137
0.0254712
0.0232978
0.0212077
0.0192048
0.017288
0.015453
0.0136928
0.0119993
0.0103683
0.00879481
0.0072731
0.0058458
0.00459217
0.00359435
0.00292862
0.00257885
0.00244985
0.00481531
0.00487878
0.00510443
0.00559497
0.00638704
0.00743321
0.00865709
0.00999177
0.0113989
0.0128634
0.0143827
0.015961
0.0176029
0.0193119
0.0210895
0.0229365
0.0248517
0.0268306
0.0288661
0.0309474
0.0330581
0.0351742
0.0372508
0.03921
0.0409271
0.0422496
0.0430572
0.0433153
0.0430541
0.0422964
0.0410557
0.0394077
0.0374856
0.0354147
0.0332822
0.0311386
0.0290164
0.0269448
0.0249543
0.0230581
0.021171
0.0193382
0.0175713
0.01587
0.0142301
0.0126471
0.0111168
0.00964121
0.00822641
0.0068958
0.00572796
0.00480614
0.0041923
0.00388254
0.00377025
0.00612425
0.00616324
0.00635546
0.00678812
0.007497
0.00844411
0.00955923
0.0107816
0.0120744
0.013421
0.0148183
0.0162671
0.0177694
0.0193267
0.0209395
0.0226068
0.0243252
0.0260893
0.0278907
0.0297189
0.0315587
0.033387
0.0351655
0.0368293
0.0382773
0.0393931
0.040081
0.0403073
0.0400902
0.0394493
0.0383997
0.0370035
0.0353658
0.0335893
0.0317462
0.0298789
0.0280126
0.0261633
0.024349
0.0225941
0.0209228
0.0193
0.0176903
0.0161271
0.0146146
0.0131489
0.0117291
0.0103593
0.00905233
0.00783449
0.0067611
0.00592019
0.00536598
0.00508364
0.00499181
0.00727529
0.00730112
0.00746395
0.00784512
0.0084768
0.00932704
0.0103334
0.0114408
0.012616
0.0138425
0.0151149
0.0164329
0.017797
0.0192069
0.0206614
0.0221586
0.0236934
0.0252597
0.0268492
0.0284512
0.0300516
0.03163
0.0331526
0.0345662
0.035792
0.0367391
0.0373309
0.0375333
0.0373552
0.0368112
0.0359194
0.0347323
0.033333
0.0318044
0.0302075
0.028579
0.0269409
0.025307
0.0236873
0.0220933
0.0205424
0.0190505
0.0176277
0.0162396
0.0148625
0.0135212
0.0122182
0.0109602
0.00976234
0.00865489
0.00768701
0.00692622
0.00643011
0.00618331
0.0061062
0.00828809
0.00830857
0.00845173
0.00878727
0.00934479
0.0100965
0.0109923
0.0119831
0.0130385
0.0141437
0.0152919
0.0164816
0.0177113
0.0189798
0.0202846
0.0216222
0.0229868
0.0243725
0.0257709
0.0271715
0.0285614
0.0299223
0.0312265
0.0324296
0.0334706
0.0342798
0.034793
0.0349779
0.0348331
0.0343701
0.0336084
0.0325939
0.0313942
0.0300761
0.02869
0.0272677
0.0258293
0.0243882
0.0229561
0.0215415
0.020147
0.0187791
0.0174467
0.0161586
0.0149219
0.0137382
0.0125827
0.0114484
0.0103608
0.00935916
0.00848659
0.00781502
0.00738237
0.00716489
0.00710177
0.00919649
0.00920724
0.00932783
0.00961261
0.0100917
0.0107443
0.0115292
0.0124058
0.0133456
0.0143335
0.0153625
0.0164291
0.017531
0.0186655
0.0198294
0.0210186
0.0222274
0.0234492
0.0246761
0.0258986
0.0271041
0.0282773
0.0293942
0.0304202
0.0313089
0.0320042
0.032455
0.0326256
0.0325082
0.032111
0.0314571
0.0305853
0.0295528
0.028414
0.0272092
0.0259662
0.0247031
0.0234343
0.0221702
0.0209147
0.019674
0.0184529
0.0172569
0.016089
0.0149499
0.0138476
0.0127916
0.0117778
0.0108001
0.00995184
0.00918309
0.00859243
0.00821478
0.00802722
0.00797781
0.00993264
0.00993404
0.0100302
0.0102718
0.0106825
0.0112487
0.011936
0.012709
0.0135418
0.0144204
0.0153369
0.0162877
0.0172693
0.0182786
0.0193119
0.0203646
0.0214309
0.0225048
0.0235784
0.0246431
0.0256881
0.0266993
0.0276576
0.0285356
0.0292968
0.0298993
0.0302982
0.0304566
0.0303617
0.0300205
0.0294548
0.0287025
0.0278098
0.0268231
0.0257752
0.0246887
0.0235815
0.0224652
0.0213468
0.020234
0.0191323
0.0180462
0.0169798
0.015936
0.0149169
0.0139263
0.0129699
0.0120569
0.0112025
0.0104116
0.00965096
0.00924318
0.00895122
0.00876673
0.00872241
0.0104937
0.0104925
0.0105789
0.0107857
0.0111404
0.0116316
0.0122312
0.0129088
0.0136415
0.0144167
0.0152273
0.0160688
0.0169377
0.0178306
0.0187431
0.0196709
0.0206085
0.0215496
0.0224872
0.0234134
0.0243187
0.025191
0.0260147
0.0267692
0.0274254
0.0279506
0.0283058
0.0284539
0.0283775
0.0280826
0.0275904
0.0269374
0.0261638
0.0253062
0.024393
0.0234448
0.0224749
0.0214914
0.0205034
0.0195179
0.0185409
0.0175768
0.0166293
0.015702
0.0147981
0.0139201
0.013073
0.0122647
0.0115092
0.0108351
0.0102802
0.00986667
0.00955662
0.00929165
0.00934266
0.0109578
0.0109549
0.011035
0.0112133
0.0115093
0.0119234
0.012435
0.0130183
0.0136541
0.0143308
0.0150413
0.0157807
0.0165449
0.0173302
0.0181325
0.0189471
0.0197686
0.0205915
0.0214092
0.0222146
0.0229992
0.023753
0.0244634
0.0251137
0.0256831
0.026144
0.0264627
0.0266015
0.0265409
0.0262835
0.0258529
0.0252841
0.0246107
0.0238637
0.0230676
0.0222393
0.0213884