/*--------------------------------*- C++ -*----------------------------------*\
  =========                 |
  \\      /  F ield         | OpenFOAM: The Open Source CFD Toolbox
   \\    /   O peration     | Website:  https://openfoam.org
    \\  /    A nd           | Version:  7
     \\/     M anipulation  |
\*---------------------------------------------------------------------------*/
FoamFile
{
    version     2.0;
    format      ascii;
    class       surfaceScalarField;
    location    "20";
    object      phi;
}
// * * * * * * * * * * * * * * * * * * * * * * * * * * * * * * * * * * * * * //

dimensions      [0 3 -1 0 0 0 0];

internalField   nonuniform List<scalar> 
34768
(
8.18153e-05
0.000970077
-0.000149622
-4.42908e-05
2.57151e-05
0.000920868
-1.57675e-05
1.08316e-05
0.000907433
-8.23727e-06
6.69711e-06
0.000904238
-5.33502e-06
4.6075e-06
0.000903525
-4.28971e-06
3.90969e-06
0.000903177
-3.62688e-06
3.51329e-06
0.00090311
-3.45281e-06
3.43189e-06
0.000903117
-3.14305e-06
3.07889e-06
0.00090326
-3.23567e-06
3.00901e-06
0.000903323
-3.09671e-06
2.99629e-06
0.000903297
-3.0061e-06
3.22506e-06
0.000903279
-3.05156e-06
2.9855e-06
0.000903564
-3.22516e-06
3.17128e-06
0.000903552
-3.22181e-06
3.37824e-06
0.000903543
-3.33808e-06
3.30354e-06
0.000903834
-3.57169e-06
3.54536e-06
0.000903726
-3.52106e-06
3.70231e-06
0.000903819
-3.68509e-06
3.67347e-06
0.000903912
-3.86285e-06
3.75795e-06
0.000904106
-4.15359e-06
4.755e-06
0.0009041
-5.55638e-06
6.3636e-06
0.000905195
-5.22037e-06
4.37298e-06
0.00090487
-3.61447e-06
4.0818e-06
0.000904606
-5.34701e-06
-3.61436e-07
0.000909282
-7.07736e-07
1.28185e-06
0.00090863
-1.18277e-06
8.38775e-07
0.000909438
-5.42899e-07
-7.5783e-09
0.000909646
5.67814e-07
-8.53044e-07
0.000909379
1.21154e-06
-1.32603e-06
0.00090921
1.35639e-06
-1.40315e-06
0.000909152
1.40643e-06
-1.38648e-06
0.000909076
1.37348e-06
-1.35763e-06
0.00090908
1.29921e-06
-1.28826e-06
0.000909095
1.28501e-06
-1.27957e-06
0.000909101
1.28213e-06
-1.28279e-06
0.000909107
1.29157e-06
-1.2988e-06
0.000909114
1.31432e-06
-1.4286e-06
0.000909221
1.75122e-06
-1.17324e-06
0.000909929
7.03921e-07
-5.34206e-07
0.000910337
4.72935e-07
-4.11802e-07
0.000910345
4.59378e-07
-5.07935e-07
0.000910255
5.65634e-07
-6.25524e-07
0.000910266
6.95408e-07
-6.69169e-07
0.000910079
7.54282e-07
-8.45741e-07
0.000910097
9.50837e-07
-1.06588e-06
0.00091002
1.19828e-06
-1.34617e-06
0.000909953
1.51765e-06
-1.71341e-06
0.00091
1.94318e-06
-2.31181e-06
0.000910073
2.53275e-06
-2.91759e-06
0.000910089
3.38664e-06
-4.06185e-06
0.000910279
4.67229e-06
-5.54622e-06
0.000910478
6.57582e-06
-7.66286e-06
0.00091059
8.62319e-06
-6.598e-06
0.000907477
-3.97822e-06
-2.68402e-05
0.00094032
-0.000828423
0.000144623
0.000703605
-1.98374e-05
-0.000972102
-0.00014924
0.000117018
0.0010043
-0.000925094
-9.01452e-05
7.07036e-05
0.00094452
-0.000911506
-5.65989e-05
4.61437e-05
0.000921948
-0.000907136
-3.81786e-05
3.21482e-05
0.00091315
-0.000905432
-2.74555e-05
2.37196e-05
0.000909149
-0.000904491
-2.02136e-05
1.80421e-05
0.000906642
-0.000903962
-1.58009e-05
1.39753e-05
0.000905766
-0.000903837
-1.23255e-05
1.10746e-05
0.000905064
-0.000903721
-1.00122e-05
8.98131e-06
0.000904729
-0.00090377
-7.98669e-06
7.38382e-06
0.00090435
-0.000903658
-6.58429e-06
5.95135e-06
0.000904269
-0.000903571
-5.50087e-06
4.90101e-06
0.00090415
-0.000903801
-4.36909e-06
4.07795e-06
0.000904072
-0.000903742
-3.74506e-06
3.34635e-06
0.000904121
-0.000903689
-3.29909e-06
2.98196e-06
0.000903988
-0.000903842
-2.71119e-06
2.56824e-06
0.000903967
-0.000903799
-2.56782e-06
2.39365e-06
0.000903956
-0.000903858
-2.35892e-06
2.2496e-06
0.000903951
-0.000903919
-2.37667e-06
2.42849e-06
0.000903853
-0.000904183
-2.21383e-06
2.32326e-06
0.000904062
-0.00090395
-2.66272e-06
2.02568e-06
0.000904577
-0.000907
-2.19601e-06
5.11769e-06
0.00090407
-0.000903337
-4.00807e-06
-1.48534e-06
0.000908824
-0.000907852
2.61576e-07
-1.40919e-07
0.000907728
-0.000908318
1.59596e-07
-9.26376e-08
0.000908249
-0.000909599
3.04769e-08
3.33205e-07
0.000909236
-0.000910091
-5.21062e-07
2.31291e-07
0.000910384
-0.000909521
7.19389e-08
1.09032e-07
0.000909346
-0.000909328
-3.72943e-07
3.96486e-08
0.00090967
-0.000909114
5.51262e-08
2.91505e-08
0.00090904
-0.000908985
-1.85916e-07
3.58743e-07
0.000908825
-0.000909001
-4.98952e-07
6.32713e-07
0.000908883
-0.000909052
-7.79011e-07
8.66648e-07
0.000908981
-0.000909086
-8.12944e-07
9.48794e-07
0.000908969
-0.000909123
-9.3975e-07
9.18736e-07
0.000909165
-0.000909163
-8.50097e-07
7.68034e-07
0.000909267
-0.000909606
-5.35759e-07
2.88642e-07
0.000909875
-0.000909851
4.10854e-07
-7.27813e-07
0.000910192
-0.000910201
7.00403e-07
-7.92865e-07
0.000910317
-0.000910454
8.44081e-07
-1.01894e-06
0.000910653
-0.000910513
1.35727e-06
-1.7249e-06
0.000910905
-0.000910482
2.16257e-06
-2.63797e-06
0.000910982
-0.000910467
3.1937e-06
-3.90006e-06
0.000911197
-0.000910474
4.60182e-06
-5.47364e-06
0.00091137
-0.000910516
6.36428e-06
-7.55494e-06
0.00091173
-0.000910714
8.7004e-06
-1.00925e-05
0.000912129
-0.000910901
1.15971e-05
-1.35239e-05
0.000912849
-0.000911338
1.55581e-05
-1.80395e-05
0.000913839
-0.000911935
2.08911e-05
-2.45106e-05
0.000915573
-0.000913102
2.87946e-05
-3.40527e-05
0.000918379
-0.000915141
4.06475e-05
-4.89347e-05
0.000923448
-0.000918953
5.99613e-05
-7.43032e-05
0.000933316
-0.000924419
9.3967e-05
-0.000124204
0.000954672
-0.000978632
0.000165248
-0.000143025
0.000956419
-0.000599351
8.50945e-05
0.000518628
-4.3899e-06
-0.00102202
-0.000134395
0.000131606
0.00102481
-0.00096291
-0.000111799
9.35793e-05
0.000981138
-0.000933206
-7.94892e-05
6.81511e-05
0.000944555
-0.000920409
-5.88954e-05
5.1161e-05
0.000928152
-0.000914129
-4.4536e-05
3.91067e-05
0.000919563
-0.000910548
-3.43855e-05
3.03325e-05
0.000914602
-0.000908025
-2.68315e-05
2.31842e-05
0.000911671
-0.000907
-2.06273e-05
1.83918e-05
0.000909232
-0.00090613
-1.62307e-05
1.43014e-05
0.000908053
-0.000905636
-1.25777e-05
1.10261e-05
0.000907179
-0.000905116
-9.83465e-06
8.47466e-06
0.000906465
-0.000905009
-7.24307e-06
6.41804e-06
0.000905822
-0.000904676
-5.29987e-06
4.46965e-06
0.000905491
-0.000904491
-3.83372e-06
3.17286e-06
0.000905137
-0.00090444
-2.49652e-06
2.08744e-06
0.000904833
-0.000904112
-1.65665e-06
1.28743e-06
0.000904464
-0.0009041
-8.91666e-07
6.53845e-07
0.000904321
-0.000904001
-4.85957e-07
4.73356e-07
0.000903997
-0.000904013
-1.2686e-07
1.33448e-07
0.00090399
-0.000903737
-4.02591e-07
-1.77125e-07
0.000904301
-0.000904772
4.9692e-07
6.29581e-07
0.000903631
-0.000906039
1.41884e-06
-3.01058e-06
0.000907619
-0.000907894
2.48297e-06
-2.08195e-06
0.000907483
-0.000907748
1.47426e-06
-1.39573e-06
0.000907662
-0.000908
1.2792e-06
-1.22487e-06
0.00090794
-0.000908552
8.33498e-07
-3.33842e-07
0.00090805
-0.000910576
-2.45864e-07
1.71309e-07
0.00091065
-0.000909122
-8.47839e-08
3.85647e-07
0.000908823
-0.000909801
-8.06435e-07
1.09131e-06
0.000909521
-0.000908827
-1.13606e-06
1.34567e-06
0.000908625
-0.00090857
-1.69395e-06
2.04012e-06
0.000908233
-0.000908677
-2.33609e-06
2.60384e-06
0.000908421
-0.000908755
-2.86308e-06
2.93889e-06
0.000908693
-0.000909021
-3.1494e-06
3.22225e-06
0.000908964
-0.000909202
-3.22415e-06
3.18488e-06
0.000909258
-0.000909395
-3.07014e-06
2.81144e-06
0.000909673
-0.0009106
-2.07361e-06
7.89481e-07
0.000911904
-0.000910419
-8.19723e-07
7.9959e-07
0.000910461
-0.000910555
-3.91576e-07
-7.13801e-08
0.00091104
-0.000911011
5.27648e-07
-1.14556e-06
0.000911652
-0.000911398
1.76453e-06
-2.55469e-06
0.000912211
-0.000911731
3.45714e-06
-4.44471e-06
0.000912741
-0.000912133
5.56117e-06
-6.78381e-06
0.000913378
-0.00091264
8.26023e-06
-9.77365e-06
0.000914176
-0.000913207
1.14771e-05
-1.3465e-05
0.000915216
-0.000914122
1.5598e-05
-1.80859e-05
0.000916631
-0.000915334
2.09041e-05
-2.39832e-05
0.000918433
-0.000917298
2.76261e-05
-3.16976e-05
0.000921388
-0.000920279
3.65423e-05
-4.2185e-05
0.000925939
-0.000925364
4.88375e-05
-5.67196e-05
0.000933262
-0.000934087
6.6052e-05
-7.73982e-05
0.00094545
-0.000950204
9.11778e-05
-0.000108252
0.000967295
-0.000985421
0.000130353
-0.000154973
0.00101006
-0.000906944
0.000157794
-9.21119e-05
0.000841275
-0.00045814
4.85374e-05
0.000412292
-2.70422e-06
-0.00101426
-0.000100314
0.000120041
0.000994524
-0.000997693
-0.000114183
0.000100648
0.00101123
-0.000955639
-8.78338e-05
7.7244e-05
0.000966231
-0.000936118
-6.81825e-05
6.04423e-05
0.00094386
-0.00092542
-5.36678e-05
4.7703e-05
0.000931384
-0.000919062
-4.24237e-05
3.77325e-05
0.000923749
-0.000915028
-3.35503e-05
2.9807e-05
0.000918764
-0.00091236
-2.65516e-05
2.35274e-05
0.000915375
-0.000910129
-2.0701e-05
1.7728e-05
0.000913091
-0.000908936
-1.56987e-05
1.35689e-05
0.000911054
-0.000907991
-1.15301e-05
9.95732e-06
0.00090955
-0.000907075
-8.34435e-06
6.86744e-06
0.000908536
-0.000906413
-5.53026e-06
4.31006e-06
0.000907616
-0.000906056
-3.11503e-06
2.22434e-06
0.000906928
-0.000905368
-1.44964e-06
6.69555e-07
0.000906129
-0.000905029
1.01244e-07
-7.82807e-07
0.00090569
-0.000904623
1.15885e-06
-1.54954e-06
0.000904994
-0.000904344
1.93876e-06
-2.24496e-06
0.00090463
-0.000903889
2.15284e-06
-2.87992e-06
0.000904596
-0.000904555
3.20926e-06
-2.26287e-06
0.000903591
-0.000905764
4.44183e-06
-6.1059e-06
0.000907411
-0.000907081
5.61768e-06
-5.46692e-06
0.000906916
-0.000906944
4.90203e-06
-4.41843e-06
0.000906447
-0.000907075
3.98576e-06
-3.17961e-06
0.000906258
-0.000908224
2.47676e-06
-2.40511e-06
0.000908144
-0.000907202
1.68538e-06
-9.3967e-07
0.000906451
-0.000910405
3.18869e-07
7.84935e-08
0.000910005
-0.000908308
-2.84131e-07
8.87671e-07
0.000907704
-0.000908516
-1.69684e-06
2.53929e-06
0.000907676
-0.000908666
-2.56516e-06
2.90856e-06
0.000908328
-0.000907788
-3.45403e-06
4.00635e-06
0.000907243
-0.000908067
-4.49875e-06
4.93826e-06
0.000907637
-0.000908467
-5.21627e-06
5.60294e-06
0.000908092
-0.000908869
-5.79867e-06
5.92713e-06
0.000908754
-0.000909305
-5.95713e-06
6.01508e-06
0.000909263
-0.00090987
-5.76886e-06
5.34742e-06
0.000910308
-0.000912958
-4.41771e-06
4.00883e-06
0.000913386
-0.000910883
-3.48577e-06
2.88065e-06
0.000911507
-0.000911637
-2.25791e-06
1.54864e-06
0.000912367
-0.000912336
-7.15842e-07
-3.1046e-07
0.000913384
-0.000913202
1.36843e-06
-2.42883e-06
0.000914285
-0.000913966
3.73396e-06
-5.15683e-06
0.000915412
-0.000914978
6.84272e-06
-8.46716e-06
0.000916625
-0.000916108
1.04816e-05
-1.25671e-05
0.000918217
-0.000917468
1.48789e-05
-1.75094e-05
0.000920122
-0.000919329
2.03197e-05
-2.3514e-05
0.000922547
-0.000922068
2.69658e-05
-3.08952e-05
0.000926021
-0.000926042
3.51913e-05
-4.00973e-05
0.000930971
-0.000932031
4.56266e-05
-5.17469e-05
0.000938173
-0.000941316
5.88122e-05
-6.68303e-05
0.000949356
-0.000956616
7.59947e-05
-8.62909e-05
0.000966932
-0.000983058
9.77321e-05
-0.00011186
0.000997204
-0.00102506
0.000126696
-0.000130932
0.00102932
-0.000772156
0.000102416
-3.92689e-05
0.000709031
-0.000376941
2.93861e-05
0.000349163
-1.62699e-06
-0.000969541
-7.13501e-05
9.89679e-05
0.000941907
-0.00102161
-0.000104561
9.77889e-05
0.00102836
-0.000976123
-8.79692e-05
7.84887e-05
0.000985584
-0.000951298
-7.02979e-05
6.31236e-05
0.000958451
-0.0009374
-5.66707e-05
5.09007e-05
0.000943146
-0.000928533
-4.56587e-05
4.08594e-05
0.000933307
-0.000922679
-3.64832e-05
3.25618e-05
0.000926574
-0.000918505
-2.88834e-05
2.54895e-05
0.000921872
-0.000915575
-2.2483e-05
1.9709e-05
0.000918322
-0.000913398
-1.71746e-05
1.4732e-05
0.000915814
-0.000911625
-1.20909e-05
9.91771e-06
0.000913772
-0.000910195
-8.1281e-06
6.38062e-06
0.000911916
-0.000909198
-4.49385e-06
3.139e-06
0.000910526
-0.000907855
-1.83493e-06
4.48992e-07
0.000909215
-0.00090702
6.93114e-07
-1.82151e-06
0.000908122
-0.000906356
2.71077e-06
-3.28772e-06
0.000906908
-0.000905641
4.231e-06
-4.66244e-06
0.000906047
-0.000904563
4.86014e-06
-6.04856e-06
0.000905727
-0.000905015
6.49999e-06
-5.64321e-06
0.000904136
-0.000905827
8.08347e-06
-1.00491e-05
0.000907772
-0.00090684
9.53963e-06
-9.51687e-06
0.000906799
-0.000906408
8.97737e-06
-8.3625e-06
0.000905776
-0.000905924
7.82824e-06
-7.03441e-06
0.000905115
-0.000905501
6.19397e-06
-5.3906e-06
0.000904685
-0.00090741
4.53819e-06
-3.79611e-06
0.000906659
-0.000905604
2.72062e-06
-1.63084e-06
0.000904508
-0.000909484
6.95476e-07
-3.16648e-08
0.000908817
-0.000906974
-6.70603e-07
1.46994e-06
0.000906174
-0.000906901
-2.51394e-06
3.44138e-06
0.000905976
-0.000907739
-4.05813e-06
4.80386e-06
0.000906998
-0.000906568
-5.63917e-06
6.44901e-06
0.000905765
-0.000907102
-7.17267e-06
7.80607e-06
0.000906478
-0.000907739
-8.36846e-06
8.80039e-06
0.000907318
-0.000908491
-9.10934e-06
9.31901e-06
0.000908295
-0.000909302
-9.39803e-06
9.3737e-06
0.000909341
-0.000911557
-9.01372e-06
7.94647e-06
0.000912641
-0.000912858
-7.14137e-06
7.12291e-06
0.000912895
-0.000912004
-6.56107e-06
5.88938e-06
0.000912694
-0.000913196
-4.97186e-06
4.04268e-06
0.000914146
-0.000914356
-2.96369e-06
1.66722e-06
0.000915674
-0.000915718
-3.16357e-07
-1.15931e-06
0.000917215
-0.00091703
2.79912e-06
-4.67621e-06
0.000918929
-0.000918666
6.63127e-06
-8.7403e-06
0.000920797
-0.000920533
1.11501e-05
-1.36383e-05
0.000923043
-0.00092289
1.63559e-05
-1.92869e-05
0.000925842
-0.000925871
2.24886e-05
-2.61568e-05
0.00092956
-0.000930149
2.99444e-05
-3.40545e-05
0.00093428
-0.000935892
3.85591e-05
-4.35688e-05
0.000940921
-0.000944353
4.90597e-05
-5.50585e-05
0.00095037
-0.000957028
6.11369e-05
-6.74422e-05
0.000963352
-0.000975998
7.52859e-05
-8.39619e-05
0.000984691
-0.00100936
9.37599e-05
-0.000103717
0.00101933
-0.00102462
0.00010889
-9.78025e-05
0.00101355
-0.0006551
6.22409e-05
-1.75842e-05
0.000610465
-0.000326869
1.92005e-05
0.000308692
-1.04504e-06
-0.000913803
-5.12024e-05
7.85798e-05
0.000886406
-0.00103194
-9.07819e-05
9.00177e-05
0.00103268
-0.000993846
-8.34636e-05
7.58705e-05
0.00100142
-0.000965341
-6.88526e-05
6.25153e-05
0.000971653
-0.000949226
-5.67413e-05
5.17002e-05
0.00095424
-0.00093803
-4.63128e-05
4.12451e-05
0.000943071
-0.000930618
-3.63985e-05
3.23384e-05
0.000934651
-0.000925246
-2.85568e-05
2.50019e-05
0.000928773
-0.000921316
-2.1794e-05
1.87812e-05
0.0009243
-0.000918291
-1.59857e-05
1.33618e-05
0.000920886
-0.000915988
-1.10363e-05
8.76265e-06
0.000918232
-0.000914007
-6.87313e-06
4.71917e-06
0.000916131
-0.000912114
-2.63514e-06
7.87354e-07
0.000913932
-0.000910719
8.95522e-07
-2.4479e-06
0.000912242
-0.000909249
3.83848e-06
-4.9977e-06
0.00091038
-0.000908063
6.29794e-06
-7.26417e-06
0.000909002
-0.000906428
7.76645e-06
-9.33675e-06
0.000907972
-0.00090633
1.0233e-05
-9.58814e-06
0.00090566
-0.000906798
1.26231e-05
-1.47148e-05
0.000908865
-0.000907238
1.43065e-05
-1.45437e-05
0.000907454
-0.00090619
1.40146e-05
-1.3646e-05
0.000905801
-0.000905326
1.31295e-05
-1.22534e-05
0.000904433
-0.000904211
1.13295e-05
-1.03749e-05
0.000903241
-0.000903633
9.24028e-06
-8.16017e-06
0.000902541
-0.000905665
7.29012e-06
-5.82235e-06
0.000904188
-0.000903192
4.31259e-06
-2.78095e-06
0.000901654
-0.000907959
1.3528e-06
-1.56624e-07
0.00090676
-0.000904995
-9.46863e-07
2.3906e-06
0.000903551
-0.000904854
-3.77487e-06
5.32837e-06
0.000903303
-0.000906118
-6.82175e-06
7.46895e-06
0.000905477
-0.000904801
-8.47325e-06
9.58972e-06
0.000903693
-0.000905712
-1.06064e-05
1.15101e-05
0.000904819
-0.0009069
-1.21848e-05
1.29014e-05
0.000906197
-0.000908035
-1.33568e-05
1.37761e-05
0.000907631
-0.000909454
-1.38274e-05
1.35396e-05
0.000909758
-0.000914225
-1.22826e-05
1.10878e-05
0.000915438
-0.00091287
-1.1606e-05
1.14846e-05
0.00091301
-0.000913651
-1.06932e-05
9.86471e-06
0.000914499
-0.000915286
-8.86598e-06
7.63116e-06
0.00091654
-0.000917
-6.22711e-06
4.78738e-06
0.00091846
-0.000918839
-3.1784e-06
1.43086e-06
0.000920605
-0.000920864
5.91195e-07
-2.65681e-06
0.000922948
-0.000923069
4.90259e-06
-7.40557e-06
0.00092559
-0.000925792
9.99892e-06
-1.27639e-05
0.000928574
-0.000929018
1.58392e-05
-1.9007e-05
0.000932201
-0.000933129
2.25096e-05
-2.61319e-05
0.000936765
-0.00093843
3.00136e-05
-3.42577e-05
0.000942686
-0.000945765
3.86916e-05
-4.28237e-05
0.000949907
-0.000955129
4.70857e-05
-5.24862e-05
0.000960539
-0.000970088
5.838e-05
-6.46776e-05
0.000976395
-0.000992695
7.13379e-05
-7.86453e-05
0.00100001
-0.00102702
8.61472e-05
-9.16773e-05
0.00103256
-0.000998403
8.94256e-05
-7.1868e-05
0.000980852
-0.000573958
4.00446e-05
-1.00322e-05
0.000543956
-0.000293579
1.33886e-05
0.000280907
-7.29944e-07
-0.000860204
-3.76511e-05
6.20894e-05
0.000835754
-0.00103105
-7.69301e-05
8.03734e-05
0.0010276
-0.0010083
-7.69257e-05
7.09613e-05
0.00101425
-0.00097755
-6.48063e-05
5.89654e-05
0.000983377
-0.000959373
-5.37857e-05
4.88305e-05
0.000964313
-0.000947497
-4.41624e-05
3.98328e-05
0.000951812
-0.000939198
-3.57337e-05
3.18317e-05
0.000943086
-0.00093318
-2.81356e-05
2.48237e-05
0.000936476
-0.000927481
-2.06698e-05
1.66822e-05
0.000931451
-0.000923603
-1.24653e-05
9.63715e-06
0.000926412
-0.000920411
-6.97957e-06
4.4648e-06
0.000922905
-0.000917895
-2.21695e-06
1.06273e-07
0.000919983
-0.000915899
1.63791e-06
-3.14443e-06
0.000917382
-0.000913805
4.38576e-06
-6.09652e-06
0.000915491
-0.000912041
8.14363e-06
-9.74078e-06
0.000913613
-0.000909745
1.08571e-05
-1.29273e-05
0.000911789
-0.000909086
1.42995e-05
-1.39972e-05
0.000908758
-0.00090899
1.75777e-05
-1.9147e-05
0.000910535
-0.000909107
1.94984e-05
-2.04461e-05
0.00091003
-0.000907026
2.03782e-05
-2.02283e-05
0.000906854
-0.000905238
1.98779e-05
-1.92298e-05
0.00090457
-0.000903442
1.81827e-05
-1.73047e-05
0.000902546
-0.000902038
1.60763e-05
-1.46899e-05
0.000900636
-0.000901717
1.31488e-05
-1.17166e-05
0.000900272
-0.000901801
1.06005e-05
-8.3866e-06
0.000899578
-0.000899756
6.21278e-06
-4.0927e-06
0.00089763
-0.00090529
2.07289e-06
-2.95548e-07
0.000903511
-0.000901875
-1.48911e-06
3.52676e-06
0.000899839
-0.000900865
-5.58039e-06
7.71838e-06
0.000898732
-0.000905659
-9.98545e-06
1.0865e-05
0.000904788
-0.000902506
-1.22043e-05
1.37208e-05
0.000901001
-0.000903762
-1.51116e-05
1.63421e-05
0.000902545
-0.000905471
-1.73842e-05
1.82319e-05
0.000904638
-0.000907348
-1.88694e-05
1.93235e-05
0.000906911
-0.000910724
-1.95607e-05
1.91206e-05
0.000911183
-0.000915064
-1.79715e-05
1.81303e-05
0.000914925
-0.000913487
-1.77755e-05
1.7149e-05
0.000914133
-0.000915413
-1.62188e-05
1.51261e-05
0.000916526
-0.000917783
-1.39386e-05
1.24954e-05
0.000919246
-0.000920124
-1.09666e-05
9.18795e-06
0.000921922
-0.000922588
-7.33092e-06
5.22752e-06
0.00092471
-0.000925149
-3.05136e-06
6.28273e-07
0.00092759
-0.000928121
1.86661e-06
-4.50791e-06
0.000930779
-0.000931451
7.32447e-06
-1.03966e-05
0.000934539
-0.000935453
1.35475e-05
-1.69641e-05
0.000938883
-0.000940425
2.04666e-05
-2.42483e-05
0.000944218
-0.000946495
2.70031e-05
-3.04604e-05
0.000949962
-0.000954315
3.49459e-05
-3.94316e-05
0.000958808
-0.000965916
4.42501e-05
-4.90876e-05
0.00097076
-0.0009822
5.45017e-05
-5.99842e-05
0.00098769
-0.0010067
6.59053e-05
-7.19056e-05
0.00101271
-0.00103601
7.73124e-05
-7.91542e-05
0.00103786
-0.000962403
7.25848e-05
-5.39613e-05
0.000943784
-0.000519008
2.78312e-05
-6.81272e-06
0.000497995
-0.000270164
9.77822e-06
0.00026092
-5.33017e-07
-0.000813116
-2.83361e-05
4.92794e-05
0.000792177
-0.00102265
-6.43662e-05
7.0338e-05
0.00101668
-0.00101952
-6.92306e-05
6.4859e-05
0.00102389
-0.00098885
-5.95276e-05
5.41734e-05
0.0009942
-0.0009691
-4.92446e-05
4.45908e-05
0.000973749
-0.000956145
-4.0159e-05
3.59049e-05
0.000960394
-0.000946842
-3.19215e-05
2.79786e-05
0.000950779
-0.000939903
-2.43933e-05
2.07325e-05
0.000943556
-0.000934567
-1.7526e-05
1.42394e-05
0.000937844
-0.000930464
-1.12994e-05
8.48387e-06
0.000933267
-0.000926964
-5.80764e-06
3.15306e-06
0.000929603
-0.000922208
4.83789e-07
-4.19367e-06
0.000925901
-0.00091921
7.74822e-06
-1.12666e-05
0.000922709
-0.000916609
1.42115e-05
-1.60933e-05
0.000918469
-0.000914513
1.74963e-05
-1.81359e-05
0.000915128
-0.000914355
1.74726e-05
-1.51488e-05
0.000912006
-0.000912718
2.29351e-05
-2.51397e-05
0.000914897
-0.000911127
2.60272e-05
-2.69821e-05
0.000912056
-0.000909959
2.67813e-05
-2.66605e-05
0.000909813
-0.000906851
2.74682e-05
-2.76266e-05
0.000906986
-0.000903805
2.71251e-05
-2.63798e-05
0.000903038
-0.000901329
2.52641e-05
-2.38587e-05
0.000899903
-0.000899004
2.22268e-05
-2.03813e-05
0.000897142
-0.00089843
1.83375e-05
-1.61388e-05
0.000896218
-0.000897381
1.39911e-05
-1.14407e-05
0.000894822
-0.000895172
8.68408e-06
-5.82999e-06
0.000892313
-0.000901366
3.02574e-06
-4.47157e-07
0.000898786
-0.000897427
-2.11962e-06
4.96252e-06
0.000894588
-0.000896352
-7.83052e-06
1.05963e-05
0.000893593
-0.000903132
-1.30722e-05
1.49745e-05
0.00090124
-0.000899202
-1.7131e-05
1.92143e-05
0.000897132
-0.000901123
-2.10667e-05
2.27139e-05
0.000899492
-0.000903661
-2.40845e-05
2.53075e-05
0.000902456
-0.000906386
-2.60516e-05
2.64556e-05
0.000906001
-0.000912298
-2.54964e-05
2.35156e-05
0.0009143
-0.000914406
-2.47287e-05
2.55086e-05
0.000913648
-0.000914832
-2.51431e-05
2.42745e-05
0.000915722
-0.00091772
-2.31684e-05
2.18725e-05
0.000919037
-0.00092071
-2.04627e-05
1.88784e-05
0.000922314
-0.000923631
-1.70966e-05
1.49533e-05
0.000925794
-0.000926746
-1.29302e-05
1.0558e-05
0.000929137
-0.000930042
-8.01506e-06
5.4382e-06
0.000932637
-0.000933642
-2.59615e-06
-2.74021e-07
0.000936529
-0.000937605
3.40317e-06
-6.55655e-06
0.000940775
-0.000942363
9.65552e-06
-1.19535e-05
0.000944676
-0.000946889
1.53289e-05
-1.90369e-05
0.00095061
-0.000953989
2.28944e-05
-2.69912e-05
0.000958097
-0.000963289
3.11364e-05
-3.54187e-05
0.000967581
-0.000975625
3.99748e-05
-4.46823e-05
0.000980341
-0.000993014
4.9587e-05
-5.47993e-05
0.000998235
-0.0010183
6.06679e-05
-6.58761e-05
0.00102352
-0.00103834
6.94306e-05
-6.91985e-05
0.00103812
-0.000925555
6.13036e-05
-4.3856e-05
0.000908114
-0.000479827
2.22277e-05
-5.92283e-06
0.000463531
-0.000253006
7.29777e-06
0.000246103
-3.92798e-07
-0.000773098
-2.17064e-05
3.91298e-05
0.000755681
-0.00100957
-5.33731e-05
6.07808e-05
0.00100216
-0.00102752
-6.18079e-05
5.8747e-05
0.00103058
-0.000999234
-5.42077e-05
4.92649e-05
0.00100417
-0.000978729
-4.45889e-05
4.04492e-05
0.000982865
-0.000964582
-3.59461e-05
3.16887e-05
0.000968834
-0.000954596
-2.74472e-05
2.331e-05
0.000958726
-0.000947134
-1.89624e-05
1.53441e-05
0.000950743
-0.000941085
-1.18299e-05
8.40675e-06
0.000944497
-0.000936171
-5.19534e-06
2.07707e-06
0.000939276
-0.000932165
8.24266e-07
-3.62768e-06
0.000934952
-0.000928928
6.10194e-06
-8.26404e-06
0.000931071
-0.000925049
1.12173e-05
-1.43571e-05
0.000928167
-0.000921524
1.62135e-05
-1.8546e-05
0.000923833
-0.000919365
2.20301e-05
-2.35076e-05
0.000920817
-0.000913733
2.36068e-05
-3.33717e-05
0.00092347
-0.000915414
3.37701e-05
-3.54062e-05
0.000917021
-0.000912458
3.59681e-05
-3.64974e-05
0.000912958
-0.000909812
3.674e-05
-3.6306e-05
0.000909349
-0.000907191
3.53586e-05
-3.60606e-05
0.000907866
-0.000901966
3.64141e-05
-3.57489e-05
0.000901274
-0.000898343
3.43341e-05
-3.2555e-05
0.000896541
-0.000895025
3.04684e-05
-2.80058e-05
0.000892543
-0.000893683
2.52806e-05
-2.23146e-05
0.000890703
-0.000891864
1.92975e-05
-1.58362e-05
0.000888393
-0.000888965
1.20977e-05
-8.18042e-06
0.000885043
-0.000895704
4.27633e-06
-6.12351e-07
0.000892041
-0.000891243
-3.05573e-06
6.97389e-06
0.000887331
-0.000890351
-1.09041e-05
1.47067e-05
0.000886558
-0.000898822
-1.8155e-05
2.12083e-05
0.000895782
-0.000894718
-2.38775e-05
2.66071e-05
0.000892005
-0.00089762
-2.90648e-05
3.11949e-05
0.000895509
-0.000901191
-3.29502e-05
3.4378e-05
0.000899784
-0.000905825
-3.5142e-05
3.42065e-05
0.000906783
-0.000915283
-3.24378e-05
3.40981e-05
0.000913646
-0.000913226
-3.54105e-05
3.51639e-05
0.000913497
-0.000916593
-3.44197e-05
3.32285e-05
0.000917808
-0.000920363
-3.19701e-05
3.03988e-05
0.000921957
-0.000924251
-2.8689e-05
2.67956e-05
0.000926166
-0.000927894
-2.459e-05
2.22273e-05
0.000930277
-0.000931562
-1.97784e-05
1.70909e-05
0.000934269
-0.000935464
-1.43437e-05
1.13705e-05
0.000938455
-0.00093963
-8.35486e-06
5.75413e-06
0.000942248
-0.0009432
-3.43847e-06
1.90256e-07
0.000946464
-0.000948278
3.38819e-06
-6.95466e-06
0.00095186
-0.000954454
1.07415e-05
-1.46159e-05
0.000958342
-0.000962178
1.8816e-05
-2.34334e-05
0.000966808
-0.000972018
2.78443e-05
-3.28999e-05
0.000977084
-0.000985056
3.85369e-05
-4.3525e-05
0.000990052
-0.00100386
4.79881e-05
-5.17776e-05
0.00100766
-0.00102864
5.48445e-05
-5.81781e-05
0.00103198
-0.00103521
5.99325e-05
-5.69753e-05
0.00103226
-0.000890716
4.69692e-05
-3.13463e-05
0.000875102
-0.000450146
1.47482e-05
-3.27877e-06
0.000438688
-0.000240146
5.53813e-06
0.000234896
-2.91156e-07
-0.000739736
-1.68367e-05
3.11638e-05
0.00072541
-0.000994333
-4.41333e-05
5.20681e-05
0.000986395
-0.00103302
-5.42567e-05
5.2492e-05
0.00103477
-0.00100892
-4.86953e-05
4.42377e-05
0.00101338
-0.000987263
-3.9971e-05
3.55003e-05
0.000991727
-0.000972954
-3.1172e-05
2.68369e-05
0.000977281
-0.000962659
-2.25938e-05
1.8094e-05
0.000967149
-0.000954726
-1.43109e-05
1.05813e-05
0.000958443
-0.00094842
-6.92256e-06
3.42249e-06
0.000951904
-0.000943233
1.62051e-09
-3.26378e-06
0.000946477
-0.000937885
7.27574e-06
-1.12178e-05
0.000941807
-0.00093359
1.52649e-05
-1.96441e-05
0.000937946
-0.000929835
2.27591e-05
-2.52579e-05
0.000932308
-0.00092779
2.71027e-05
-2.72873e-05
0.000927947
-0.000921196
2.79508e-05
-3.88251e-05
0.00093204
-0.000923219
3.89193e-05
-4.16807e-05
0.000925948
-0.000919257
4.39594e-05
-4.54896e-05
0.000920753
-0.000914022
4.70474e-05
-4.84288e-05
0.000915368
-0.00090907
4.95566e-05
-5.01439e-05
0.000909622
-0.00090676
4.9735e-05
-4.86254e-05
0.000905617
-0.00090088
4.84087e-05
-4.81398e-05
0.000900579
-0.000894617
4.66053e-05
-4.42719e-05
0.000892255
-0.000889763
4.15526e-05
-3.837e-05
0.000886557
-0.000887279
3.47702e-05
-3.07821e-05
0.000883274
-0.000884351
2.65759e-05
-2.19223e-05
0.000879686
-0.000880445
1.67941e-05
-1.14308e-05
0.000875078
-0.000887655
6.0091e-06
-7.88427e-07
0.000882437
-0.000882701
-4.4258e-06
9.89309e-06
0.000877242
-0.000882152
-1.5271e-05
2.04167e-05
0.00087702
-0.000892158
-2.50699e-05
2.93769e-05
0.000887868
-0.000889201
-3.33781e-05
3.7004e-05
0.000885596
-0.000893093
-3.99042e-05
4.26052e-05
0.000890415
-0.000898406
-4.47809e-05
4.62138e-05
0.000896998
-0.000908057
-4.58922e-05
4.46653e-05
0.00090931
-0.000911567
-4.64831e-05
4.77877e-05
0.000910288
-0.000914065
-4.7707e-05
4.70066e-05
0.000914791
-0.000918961
-4.58444e-05
4.44992e-05
0.000920331
-0.000923722
-4.27564e-05
4.07744e-05
0.000925728
-0.000928367
-3.85443e-05
3.62206e-05
0.000930713
-0.000932747
-3.35864e-05
3.09015e-05
0.000935452
-0.000937152
-2.79381e-05
2.49545e-05
0.000940155
-0.000941289
-2.25731e-05
1.99819e-05
0.000943898
-0.000944998
-1.65327e-05
1.2998e-05
0.000948549
-0.000950149
-9.15099e-06
4.81293e-06
0.000954503
-0.000955834
-5.86895e-07
-4.12884e-06
0.000960564
-0.000962496
9.57607e-06
-1.40225e-05
0.000966956
-0.000972434
1.71459e-05
-1.92281e-05
0.000974528
-0.000980384
2.24411e-05
-2.62434e-05
0.000984196
-0.000993611
2.98989e-05
-3.40646e-05
0.000997784
-0.00101208
3.84409e-05
-4.27406e-05
0.00101638
-0.00103547
4.69354e-05
-5.01403e-05
0.00103868
-0.00102896
5.08172e-05
-4.6974e-05
0.00102512
-0.0008606
3.75566e-05
-2.42203e-05
0.000847271
-0.000428819
1.10198e-05
-2.36273e-06
0.000420175
-0.000230347
4.26326e-06
0.000226304
-2.1761e-07
-0.000712147
-1.3186e-05
2.50613e-05
0.000700281
-0.000978567
-3.63889e-05
4.41715e-05
0.000970785
-0.00103616
-4.72193e-05
4.63657e-05
0.00103701
-0.00101799
-4.32236e-05
3.93381e-05
0.00102187
-0.000996161
-3.4885e-05
3.05735e-05
0.00100047
-0.000981294
-2.61368e-05
2.17697e-05
0.000985652
-0.000970828
-1.71393e-05
1.31921e-05
0.000974764
-0.000962671
-9.28424e-06
5.50055e-06
0.000966441
-0.000956248
-1.64672e-06
-1.97866e-06
0.000959857
-0.000949973
5.66834e-06
-9.97038e-06
0.000954255
-0.000944972
1.43223e-05
-1.89562e-05
0.000949584
-0.00094055
2.38327e-05
-2.75052e-05
0.000944197
-0.0009368
3.05658e-05
-3.29393e-05
0.000939146
-0.000933103
3.36455e-05
-3.49202e-05
0.000934347
-0.000933034
4.77008e-05
-5.01385e-05
0.000935437
-0.000928244
5.31447e-05
-5.48481e-05
0.00092991
-0.000923258
5.65332e-05
-5.85448e-05
0.00092523
-0.000916747
6.09539e-05
-6.29761e-05
0.000918728
-0.000910364
6.42928e-05
-6.51121e-05
0.000911141
-0.000904501
6.5442e-05
-6.47031e-05
0.000903721
-0.000900921
6.29061e-05
-6.24023e-05
0.000900377
-0.000890043
6.21193e-05
-6.01925e-05
0.000888081
-0.000882859
5.69868e-05
-5.30162e-05
0.000878859
-0.000878373
4.81475e-05
-4.16773e-05
0.000871881
-0.00087479
3.37884e-05
-2.91118e-05
0.000870101
-0.00086877
2.33086e-05
-1.60624e-05
0.00086152
-0.00087619
8.46932e-06
-9.7181e-07
0.000868697
-0.000870799
-6.52151e-06
1.41615e-05
0.000863171
-0.00087129
-2.14034e-05
2.70151e-05
0.000865696
-0.000882089
-3.11945e-05
3.93478e-05
0.000873957
-0.000881383
-4.61063e-05
5.10982e-05
0.000876415
-0.000887573
-5.51509e-05
5.82051e-05
0.000884545
-0.000896223
-5.99472e-05
5.91018e-05
0.000897096
-0.000908697
-5.81104e-05
6.14979e-05
0.000905338
-0.000909521
-6.35993e-05
6.37684e-05
0.00090938
-0.000915718
-6.28694e-05
6.16671e-05
0.000916947
-0.000922036
-5.99621e-05
5.79454e-05
0.000924078
-0.000927884
-5.56032e-05
5.31237e-05
0.000930388
-0.000933314
-5.03883e-05
4.73697e-05
0.000936354
-0.000938508
-4.4367e-05
4.1777e-05
0.000941117
-0.000942528
-3.87113e-05
3.48086e-05
0.000946448
-0.000947651
-2.99711e-05
2.49454e-05
0.000952693
-0.000952694
-1.89957e-05
1.4531e-05
0.000957174
-0.000960269
-1.16612e-05
1.00249e-05
0.000961918
-0.000963406
-6.99014e-06
3.30562e-06
0.000967103
-0.000969969
9.53136e-08
-3.93513e-06
0.000973821
-0.000978038
7.91636e-06
-1.202e-05
0.000982152
-0.000988337
1.61571e-05
-2.03191e-05
0.000992508
-0.00100193
2.45264e-05
-2.87754e-05
0.00100619
-0.00102069
3.29507e-05
-3.71723e-05
0.00102492
-0.0010414
4.09671e-05
-4.34922e-05
0.00104393
-0.00102089
4.32244e-05
-3.89374e-05
0.0010166
-0.000834896
3.00973e-05
-1.87367e-05
0.000823541
-0.000412571
8.27704e-06
-1.64436e-06
0.000405948
-0.000222748
3.28565e-06
0.000219615
-1.58527e-07
-0.000689415
-1.04235e-05
2.02673e-05
0.000679577
-0.00096319