/*--------------------------------*- C++ -*----------------------------------*\
  =========                 |
  \\      /  F ield         | OpenFOAM: The Open Source CFD Toolbox
   \\    /   O peration     | Website:  https://openfoam.org
    \\  /    A nd           | Version:  7
     \\/     M anipulation  |
\*---------------------------------------------------------------------------*/
FoamFile
{
    version     2.0;
    format      ascii;
    class       volVectorField;
    location    "20";
    object      U;
}
// * * * * * * * * * * * * * * * * * * * * * * * * * * * * * * * * * * * * * //

dimensions      [0 1 -1 0 0 0 0];

internalField   nonuniform List<vector> 
17475
(
(1.01742 0.205934 -1.6116e-20)
(0.995814 0.0221871 -2.54211e-20)
(0.999681 0.00968282 0)
(0.999907 0.00484715 0)
(0.999968 0.00301874 0)
(0.999988 0.00206388 0)
(0.999994 0.00147839 0)
(0.999996 0.00108225 0)
(0.999997 0.000796063 -5.16321e-20)
(0.999998 0.000579541 0)
(0.999998 0.000410061 0)
(0.999998 0.000274306 0)
(0.999998 0.000164012 0)
(0.999999 7.37642e-05 0)
(0.999999 1.00404e-07 0)
(0.999999 -5.93211e-05 0)
(0.999999 -0.00010604 0)
(0.999999 -0.000141165 0)
(0.999999 -0.000165484 0)
(0.999999 -0.00017966 0)
(0.999999 -0.000184222 -1.98923e-19)
(0.999999 -0.000179923 4.81676e-22)
(1 -0.000167453 0)
(1 -0.000147616 -6.29328e-21)
(1 -0.000121934 0)
(1 -9.03299e-05 -1.26137e-20)
(1 -5.58249e-05 0)
(1 -1.92903e-05 0)
(1 1.77263e-05 -1.58044e-21)
(1 5.35491e-05 5.04739e-20)
(1 8.66394e-05 4.963e-20)
(1 0.000115445 0)
(1 0.000138676 0)
(1 0.000155075 -4.9764e-20)
(1 0.000163675 -4.9646e-20)
(1 0.000163536 0)
(1 0.00015396 -3.83619e-22)
(1 0.000134186 0)
(1 0.000103539 4.86101e-20)
(1 6.08862e-05 2.42391e-20)
(1 5.68162e-06 -2.41802e-20)
(0.999999 -6.3378e-05 0)
(0.999999 -0.000148367 -2.4216e-20)
(0.999999 -0.000252497 0)
(0.999999 -0.000380582 -1.22269e-20)
(0.999998 -0.000540007 0)
(0.999997 -0.000742244 2.5238e-20)
(0.999996 -0.00100571 0)
(0.999994 -0.00136069 0)
(0.99999 -0.00185872 0)
(0.999984 -0.00258937 0)
(0.999976 -0.00369589 -1.56135e-20)
(0.999934 -0.00537591 3.48877e-20)
(0.999012 -0.00292626 3.85651e-20)
(1.02881 -0.0897561 -3.85679e-20)
(0.871219 0.0809315 2.02856e-20)
(1.09959 0.0969313 0)
(1.03467 0.0584809 0)
(1.01491 0.0371151 0)
(1.00781 0.025118 -1.44627e-19)
(1.0047 0.0177771 -1.38882e-19)
(1.00311 0.0129574 1.32177e-19)
(1.00221 0.00958262 0)
(1.00164 0.00709504 0)
(1.00127 0.00518909 0)
(1.001 0.00368595 0)
(1.00081 0.0024764 0)
(1.00066 0.00149107 0)
(1.00053 0.000684608 0)
(1.00043 2.73821e-05 0)
(1.00034 -0.000500731 0)
(1.00025 -0.000913172 0)
(1.00017 -0.00121941 0)
(1.0001 -0.00142628 0)
(1.00004 -0.00153959 0)
(0.999972 -0.00156462 0)
(0.999914 -0.00150751 0)
(0.999862 -0.00137426 2.51007e-19)
(0.999816 -0.00117441 -6.27774e-20)
(0.99978 -0.000915054 -1.26077e-19)
(0.999753 -0.00061061 2.63688e-23)
(0.999737 -0.000274133 -1.57583e-20)
(0.999731 7.95165e-05 0)
(0.999737 0.000436338 -7.8588e-21)
(0.999753 0.000780517 7.83388e-21)
(0.999781 0.0010973 -1.25043e-19)
(0.999819 0.00137257 1.26396e-19)
(0.999865 0.00159381 0)
(0.999919 0.00174992 -2.4539e-19)
(0.999979 0.00183153 1.90385e-21)
(1.00005 0.00183065 2.41932e-19)
(1.00012 0.00174057 0)
(1.00019 0.00155514 1.19145e-19)
(1.00027 0.00126838 0)
(1.00036 0.000872173 -1.18088e-19)
(1.00045 0.000358027 1.17625e-19)
(1.00055 -0.000286553 0)
(1.00068 -0.00108028 0)
(1.00082 -0.00205135 0)
(1.00101 -0.00324206 1.03975e-22)
(1.00126 -0.00471696 5.9785e-20)
(1.00161 -0.00657535 -6.07893e-20)
(1.00211 -0.00897455 -3.09181e-20)
(1.00286 -0.0121708 0)
(1.00407 -0.0165986 0)
(1.00608 -0.023032 0)
(1.00962 -0.0329208 -3.50008e-20)
(1.01623 -0.0497329 3.64245e-20)
(1.02807 -0.0725967 2.38599e-21)
(1.07041 -0.178082 2.77395e-21)
(0.609582 0.0199546 1.07771e-20)
(1.13997 0.106471 -1.54651e-20)
(1.07891 0.0754518 -6.40755e-20)
(1.04114 0.0541657 0)
(1.0246 0.0400032 0)
(1.01599 0.0299322 -1.28038e-19)
(1.01108 0.0225619 0)
(1.00808 0.017016 0)
(1.00613 0.0127308 0)
(1.0048 0.00933928 2.46362e-19)
(1.00384 0.00660225 0)
(1.00311 0.00436139 0)
(1.00255 0.00251107 0)
(1.00208 0.000980541 0)
(1.00168 -0.000277952 0)
(1.00133 -0.00129685 -2.43572e-19)
(1.00101 -0.00209762 0)
(1.00071 -0.00269557 0)
(1.00043 -0.0031015 0)
(1.00016 -0.00332471 0)
(0.999912 -0.00337404 4.98348e-19)
(0.999682 -0.00325904 0)
(0.999473 -0.00299314 1.88337e-19)
(0.999293 -0.00258825 -1.25959e-19)
(0.999144 -0.002068 0)
(0.999033 -0.00145462 -3.16309e-20)
(0.998964 -0.000774552 0)
(0.998938 -5.74895e-05 3.95395e-20)
(0.998955 0.000666981 2.37056e-20)
(0.999018 0.00136665 0)
(0.999123 0.00201212 -1.09716e-19)
(0.999267 0.00257453 3.89448e-21)
(0.999446 0.00302928 -1.9354e-21)
(0.999654 0.00335456 -1.22917e-19)
(0.999887 0.00353214 1.21933e-19)
(1.00014 0.00354704 0)
(1.00041 0.00338704 2.32015e-19)
(1.0007 0.00304151 -2.37206e-19)
(1.00101 0.00250015 2.51406e-19)
(1.00133 0.00175004 0)
(1.00169 0.000776861 2.93593e-20)
(1.00209 -0.000440424 -2.91786e-22)
(1.00255 -0.00193283 1.15985e-19)
(1.00311 -0.00374648 -4.23142e-22)
(1.00382 -0.00595011 -5.79896e-20)
(1.00474 -0.00864552 0)
(1.006 -0.011986 0)
(1.00779 -0.016204 2.94457e-20)
(1.01046 -0.0216582 -3.04117e-20)
(1.01462 -0.0289132 -4.9342e-22)
(1.02141 -0.0388752 9.33793e-20)
(1.03306 -0.0529443 -6.40717e-20)
(1.05416 -0.0738079 6.26955e-20)
(1.10007 -0.104885 0)
(0.963561 -0.118289 3.26558e-20)
(0.480042 0.00900523 0)
(1.11589 0.0898139 0)
(1.11492 0.0799454 2.82586e-20)
(1.06594 0.0608043 0)
(1.04253 0.0470845 1.1911e-19)
(1.02949 0.0366305 0)
(1.02146 0.0284193 0)
(1.01621 0.0218505 0)
(1.01263 0.0165176 0)
(1.01007 0.0121302 0)
(1.00817 0.00848194 0)
(1.00671 0.00542366 0)
(1.00554 0.00285177 2.38864e-19)
(1.00456 0.000692758 0)
(1.00371 -0.00110336 0)
(1.00295 -0.00257039 0)
(1.00225 -0.00373089 0)
(1.00159 -0.00459989 0)
(1.00097 -0.00518788 0)
(1.00038 -0.0055038 -2.46501e-19)
(0.999814 -0.00555622 0)
(0.999289 -0.0053586 0)
(0.998813 -0.00492211 -1.25762e-19)
(0.998398 -0.00427369 0)
(0.998055 -0.00344264 -1.90546e-19)
(0.997795 -0.00246429 3.15985e-20)
(0.997629 -0.00137991 -1.27253e-19)
(0.997564 -0.000235392 2.48339e-22)
(0.9976 0.000923135 6.3528e-20)
(0.997738 0.00204068 4.74834e-20)
(0.997973 0.00307521 1.25965e-19)
(0.998298 0.00397826 3.90071e-21)
(0.9987 0.00471249 0)
(0.999169 0.00524537 -5.40782e-22)
(0.999692 0.00555035 0)
(1.00026 0.00560672 -1.12547e-19)
(1.00086 0.00539877 -1.1891e-19)
(1.0015 0.00491413 1.18069e-19)
(1.00217 0.00414192 2.33816e-19)
(1.00288 0.00306866 9.46691e-20)
(1.00365 0.00168002 -2.89558e-20)
(1.00451 -4.63726e-05 -5.73328e-20)
(1.00548 -0.00214349 0)
(1.00664 -0.00466081 0)
(1.00808 -0.00767071 -5.65693e-20)
(1.00993 -0.0112778 5.64698e-20)
(1.01239 -0.0156323 1.41142e-19)
(1.01581 -0.0209483 2.86071e-20)
(1.02073 -0.0275298 -1.47233e-22)
(1.02809 -0.0358055 -2.80761e-20)
(1.0395 -0.046387 1.12831e-19)
(1.05788 -0.0600631 -8.40074e-20)
(1.08997 -0.078407 7.9312e-20)
(1.13327 -0.10047 5.04918e-20)
(0.813125 -0.0597793 -1.43793e-20)
(0.401349 0.0052455 0)
(1.06096 0.0685307 -2.54106e-20)
(1.13812 0.0762818 4.97096e-20)
(1.08836 0.0613201 5.27245e-20)
(1.05945 0.0490318 5.48102e-20)
(1.04304 0.0392057 1.11748e-19)
(1.03251 0.0310398 -1.12945e-19)
(1.02534 0.0241691 -1.1398e-19)
(1.02024 0.0183446 0)
(1.01647 0.0133752 -2.3027e-19)
(1.01359 0.00911444 -4.62645e-19)
(1.01131 0.00545233 -2.32601e-19)
(1.00943 0.00230843 -2.34003e-19)
(1.00784 -0.000375821 0)
(1.00643 -0.00263963 0)
(1.00514 -0.0045089 0)
(1.00394 -0.00599864 -4.83019e-19)
(1.0028 -0.00711728 -1.99002e-21)
(1.0017 -0.00786899 -4.90721e-19)
(1.00064 -0.00825664 -2.46453e-19)
(0.999632 -0.00828763 -6.20001e-20)
(0.998682 -0.00796539 1.24915e-19)
(0.997813 -0.00731313 -1.26091e-19)
(0.997048 -0.00635954 1.26776e-19)
(0.996413 -0.0051437 0)
(0.995929 -0.00371317 -6.45012e-20)
(0.995616 -0.00212741 1.28598e-19)
(0.995488 -0.000453018 0)
(0.995551 0.00124347 -3.20325e-20)
(0.995801 0.00287943 -1.60138e-20)
(0.99623 0.00439582 -1.26811e-19)
(0.996822 0.00572127 1.17966e-20)
(0.997554 0.00680391 0)
(0.998403 0.00760007 1.30979e-19)
(0.999345 0.00807591 0)
(1.00036 0.00820688 0)
(1.00143 0.00797703 -2.36124e-19)
(1.00255 0.00737768 -5.70821e-20)
(1.00372 0.00639824 1.22796e-19)
(1.00494 0.00503407 1.07777e-19)
(1.00625 0.0032764 -1.27675e-19)
(1.00767 0.0011102 -1.1294e-19)
(1.00928 -0.00148987 -1.3947e-19)
(1.01115 -0.00456229 8.30089e-20)
(1.01341 -0.00816515 1.09747e-19)
(1.01625 -0.0123808 -2.69763e-20)
(1.01994 -0.0173227 0)
(1.0249 -0.0231421 -5.36653e-20)
(1.0318 -0.030036 -5.31947e-20)
(1.04169 -0.0382564 -2.67011e-20)
(1.05638 -0.0481191 -2.52689e-20)
(1.07909 -0.05999 -7.53592e-20)
(1.11687 -0.0746288 -4.68193e-20)
(1.12281 -0.0826111 0)
(0.693995 -0.0290738 7.61015e-20)
(0.351927 0.00338606 0)
(0.999069 0.0511553 0)
(1.14664 0.0689396 -9.13828e-20)
(1.1075 0.0587787 -9.70377e-20)
(1.07478 0.0479185 0)
(1.05584 0.0389538 0)
(1.04346 0.0311993 1.06304e-19)
(1.03477 0.0243991 0)
(1.0284 0.0184158 0)
(1.02355 0.0131394 0)
(1.01975 0.00848299 -2.24316e-19)
(1.01666 0.00438004 -2.2671e-19)
(1.01406 0.000780808 0)
(1.01179 -0.00234912 0)
(1.00975 -0.00502923 -2.08381e-21)
(1.00785 -0.00727048 0)
(1.00605 -0.00907339 9.51919e-19)
(1.0043 -0.0104328 9.65782e-19)
(1.0026 -0.0113395 -4.87871e-19)
(1.00093 -0.0117889 2.44339e-19)
(0.999321 -0.0117668 3.09653e-19)
(0.997792 -0.0112833 -6.28359e-20)
(0.996381 -0.0103553 3.80291e-19)
(0.995128 -0.00901515 -6.34401e-20)
(0.994078 -0.00731043 1.73882e-22)
(0.993272 -0.00530294 -1.2933e-19)
(0.992748 -0.0030755 1.63745e-19)
(0.992528 -0.000720628 1.29923e-19)
(0.992626 0.0016669 -5.00695e-22)
(0.993037 0.00396795 6.46109e-20)
(0.993741 0.00610012 6.39528e-20)
(0.99471 0.00796347 0)
(0.995903 0.00948827 -1.13009e-19)
(0.997277 0.0106198 0)
(0.998789 0.0113175 0)
(1.0004 0.0115568 1.49829e-19)
(1.00209 0.0113281 -1.1911e-19)
(1.00383 0.0106272 0)
(1.00562 0.00945315 7.15775e-21)
(1.00747 0.00781672 0)
(1.0094 0.00572132 0)
(1.01148 0.00316672 -1.24274e-19)
(1.01377 0.000143625 1.3686e-20)
(1.01638 -0.0033674 1.99787e-22)
(1.01947 -0.00740007 -1.31169e-20)
(1.02325 -0.0120039 -1.30688e-19)
(1.02803 -0.0172469 -1.27376e-20)
(1.03428 -0.0232149 1.1407e-19)
(1.0427 -0.0300121 -9.99052e-20)
(1.0544 -0.0377527 0)
(1.07123 -0.0465904 4.6682e-20)
(1.09674 -0.0567567 9.28133e-22)
(1.13381 -0.0679603 -4.30755e-20)
(1.08943 -0.0648248 -6.50105e-20)
(0.613522 -0.0165774 0)
(0.318464 0.00231122 9.41849e-21)
(0.941288 0.0384412 -2.42034e-20)
(1.14352 0.0603224 4.34621e-20)
(1.12303 0.0547706 0)
(1.08859 0.045209 0)
(1.06771 0.0369764 -9.75274e-20)
(1.05398 0.0296715 0)
(1.04416 0.0230631 -2.05828e-19)
(1.03679 0.0170616 -2.09577e-19)
(1.03106 0.0116138 0)
(1.02645 0.00667806 -1.08514e-19)
(1.02261 0.00222916 2.20435e-19)
(1.01931 -0.00175722 -4.46617e-19)
(1.01636 -0.00529051 0)
(1.01365 -0.00836938 0)
(1.01107 -0.0109835 0)
(1.00857 -0.0131117 -3.6482e-21)
(1.00611 -0.0147282 0)
(1.00366 -0.0158106 0)
(1.00123 -0.0163192 2.43239e-19)
(0.998841 -0.0162362 3.02113e-22)
(0.996548 -0.0155555 0)
(0.994406 -0.0142857 0)
(0.992484 -0.0124574 3.88906e-19)
(0.990856 -0.0101254 2.61971e-19)
(0.989597 -0.00736608 3.30516e-20)
(0.98877 -0.00430299 0)
(0.988418 -0.0010538 2.66192e-19)
(0.988565 0.00224443 9.94421e-20)
(0.989202 0.00541558 -2.33713e-22)
(0.990292 0.00834819 0)
(0.991786 0.0109089 0)
(0.993613 0.0129968 6.92088e-21)
(0.995697 0.0145483 0)
(0.997967 0.0155199 0)
(1.00036 0.0158924 -7.75954e-24)
(1.00283 0.0156713 -2.31809e-19)
(1.00534 0.0148577 -1.16001e-19)
(1.00787 0.013477 1.12796e-19)
(1.01044 0.0115582 6.8629e-21)
(1.01308 0.00912546 -1.08096e-19)
(1.01586 0.00619862 8.00208e-22)
(1.01885 0.00279054 7.23547e-22)
(1.02219 -0.00109535 1.30791e-20)
(1.02604 -0.00546525 -8.93029e-20)
(1.03063 -0.0103366 0)
(1.03632 -0.0157372 -1.10707e-19)
(1.04356 -0.0216978 0)
(1.05308 -0.0282639 -4.67844e-20)
(1.06601 -0.0354854 0)
(1.08426 -0.0434513 4.41897e-20)
(1.11147 -0.0523491 -2.30113e-22)
(1.14168 -0.0604305 -1.95742e-20)
(1.0488 -0.0505187 -6.18235e-20)
(0.558616 -0.0111187 3.02941e-20)
(0.294616 0.0016269 0)
(0.891154 0.0293165 -2.39819e-20)
(1.13274 0.0517467 0)
(1.13495 0.0500275 0)
(1.10122 0.0417022 4.46704e-20)
(1.07881 0.0340065 7.25438e-22)
(1.06406 0.0270534 0)
(1.05342 0.0206151 -9.72533e-20)
(1.04531 0.0146199 -2.00193e-19)
(1.03888 0.0090405 0)
(1.0336 0.00386465 0)
(1.0291 -0.000911441 0)
(1.02515 -0.00528026 0)
(1.02154 -0.00922819 -3.27287e-19)
(1.01815 -0.012731 -1.10344e-19)
(1.01485 -0.0157543 0)
(1.01158 -0.0182564 1.43211e-20)
(1.00828 -0.0201966 3.48127e-19)
(1.00493 -0.0215008 -7.36383e-22)
(1.00155 -0.0221155 -1.21242e-19)
(0.998175 -0.0219883 0)
(0.994883 -0.0210933 1.2608e-19)
(0.99176 -0.0194175 -7.88844e-23)
(0.98892 -0.0169822 1.33012e-19)
(0.986487 -0.0138458 0)
(0.984584 -0.0101024 -6.74472e-20)
(0.983324 -0.00592486 -6.83272e-20)
(0.98278 -0.00147592 1.37983e-19)
(0.982994 0.00304578 6.87985e-20)
(0.983952 0.0073816 -1.34818e-19)
(0.985593 0.0113742 0)
(0.987823 0.0148362 -1.63885e-20)
(0.990522 0.0176353 -1.28159e-19)
(0.993565 0.0196984 1.56075e-20)
(0.996834 0.0209846 1.36416e-21)
(1.00023 0.0214936 2.32302e-19)
(1.00368 0.0212497 1.16563e-19)
(1.00711 0.020274 1.13231e-19)
(1.01052 0.0186317 -1.09315e-19)
(1.0139 0.0163775 0)
(1.01731 0.0135631 1.11277e-19)
(1.0208 0.0102345 0)
(1.02449 0.00642914 0)
(1.0285 0.00217534 -1.00249e-19)
(1.03302 -0.00250892 0)
(1.0383 -0.00761175 4.71458e-20)
(1.04469 -0.0131265 9.32115e-20)
(1.05267 -0.0190624 2.32492e-20)
(1.06296 -0.0254296 -8.82884e-20)
(1.07673 -0.0322496 0)
(1.09599 -0.0395959 4.17323e-20)
(1.12377 -0.047543 0)
(1.14245 -0.0528376 -1.8071e-20)
(1.00828 -0.0395064 3.92565e-20)
(0.518336 -0.00804827 0)
(0.277051 0.00118174 0)
(0.84893 0.0226527 -2.36157e-20)
(1.11769 0.0438208 -4.00815e-20)
(1.14352 0.0449514 4.03014e-20)
(1.11288 0.0378155 -4.16746e-20)
(1.08938 0.0305 -8.66443e-20)
(1.07384 0.0237657 0)
(1.0626 0.0174173 0)
(1.05396 0.0113811 0)
(1.047 0.00564359 0)
(1.04119 0.000206764 1.9871e-19)
(1.03616 -0.00491713 0)
(1.03163 -0.0097051 -4.12335e-19)
(1.0274 -0.0141251 0)
(1.02333 -0.0181295 0)
(1.01928 -0.0216642 4.09967e-19)
(1.01517 -0.0246602 3.33188e-19)
(1.01092 -0.0270261 -1.1586e-19)
(1.00652 -0.0286696 -1.16927e-19)
(1.00199 -0.0294936 1.2031e-19)
(0.997362 -0.0293965 4.962e-19)
(0.992757 -0.028307 2.55575e-19)
(0.988313 -0.0261806 -1.29938e-19)
(0.984202 -0.0230091 0)
(0.980625 -0.0188452 1.96609e-21)
(0.977793 -0.0137999 6.94192e-20)
(0.975896 -0.00811493 -6.94322e-20)
(0.975068 -0.00202365 -1.78523e-19)
(0.97538 0.00417731 4.47313e-22)
(0.976807 0.0100995 0)
(0.979245 0.01551 -6.82034e-20)
(0.982529 0.0201453 -1.32409e-19)
(0.986447 0.0238309 1.28534e-19)
(0.990798 0.0264911 -1.24519e-19)
(0.995393 0.0281019 -1.52522e-19)
(1.00009 0.0287056 -2.34636e-19)
(1.00474 0.028342 5.68757e-20)
(1.00928 0.0270948 2.74623e-20)
(1.01368 0.0250745 0)
(1.01796 0.0223736 0)
(1.02217 0.0190787 -6.38874e-21)
(1.02638 0.0152666 1.98167e-19)
(1.03072 0.0110003 9.747e-20)
(1.03533 0.00633144 0)
(1.04042 0.00130483 9.30781e-20)
(1.04625 -0.00405231 2.21756e-20)
(1.05316 -0.00972083 -2.25499e-20)
(1.06166 -0.0156894 5.37065e-21)
(1.0725 -0.021955 8.14949e-20)
(1.08688 -0.028534 3.1916e-19)
(1.10687 -0.0354876 1.54141e-19)
(1.13397 -0.0426572 -3.59605e-20)
(1.13813 -0.0456391 -3.56976e-20)
(0.971428 -0.0311945 -5.80795e-20)
(0.4886 -0.00591994 1.15633e-19)
(0.263834 0.000890495 0)
(0.813866 0.0176686 -4.62314e-20)
(1.10079 0.0367771 3.83611e-20)
(1.14918 0.0398118 -3.75286e-20)
(1.12368 0.0337816 7.82167e-20)
(1.09964 0.0267453 8.2185e-20)
(1.08347 0.0201091 -1.69297e-19)
(1.07181 0.0137555 7.82854e-22)
(1.0628 0.00760711 -8.95346e-20)
(1.05548 0.00164826 -1.85882e-19)
(1.04928 -0.00411256 -1.88864e-19)
(1.04382 -0.00965442 0)
(1.03883 -0.0149436 1.95766e-19)
(1.03407 -0.0199314 0)
(1.02937 -0.0245559 -4.24508e-19)
(1.02458 -0.0287488 -5.15658e-20)
(1.01957 -0.0324127 -2.16189e-19)
(1.01427 -0.0354104 3.35371e-19)
(1.00866 -0.0376022 -4.58374e-19)
(1.00273 -0.0388353 0)
(0.996537 -0.0389425 2.46604e-19)
(0.990205 -0.0377555 -3.81845e-19)
(0.983958 -0.0351847 1.31538e-19)
(0.978056 -0.0311575 0)
(0.972821 -0.0256935 -1.40268e-19)
(0.968603 -0.0189102 7.06829e-20)
(0.965743 -0.0111479 1.48679e-19)
(0.964478 -0.00275325 1.46983e-19)
(0.96494 0.00581215 -1.47671e-19)
(0.96708 0.0139418 0)
(0.970711 0.0212804 0)
(0.975543 0.0274415 1.69407e-19)
(0.981205 0.0322066 2.08005e-21)
(0.987365 0.0355133 -2.20802e-19)
(0.993738 0.0373965 -3.62827e-19)
(1.0001 0.0379521 5.82335e-20)
(1.00623 0.0372742 -2.78044e-20)
(1.01207 0.0355544 0)
(1.01759 0.0329547 0)
(1.02283 0.0296215 8.83076e-20)
(1.02784 0.0256839 1.08514e-19)
(1.03274 0.0212506 -1.02975e-20)
(1.03767 0.0164149 0)
(1.04279 0.0112479 -8.95155e-20)
(1.04833 0.0058 6.42559e-20)
(1.05456 0.000110907 1.69123e-19)
(1.06186 -0.00579032 0)
(1.07072 -0.0118765 0)
(1.08192 -0.0181388 4.81665e-21)
(1.09669 -0.0246052 -1.11408e-19)
(1.11712 -0.0313327 1.0726e-19)
(1.14216 -0.0378286 -1.7399e-20)
(1.13086 -0.0390253 1.50132e-19)
(0.939748 -0.0248128 -1.49288e-19)
(0.466837 -0.00451851 2.37755e-19)
(0.253749 0.000690364 0)
(0.78493 0.0138769 -2.21899e-20)
(1.08365 0.0306661 5.44771e-20)
(1.1525 0.0348202 -3.51683e-20)
(1.13368 0.0297655 -7.378e-20)
(1.10973 0.0229465 -1.52933e-19)
(1.0931 0.0163113 -7.97133e-20)
(1.08117 0.00986519 -8.24428e-20)
(1.07194 0.00352716 0)
(1.06441 -0.00272725 0)
(1.05798 -0.00888967 0)
(1.05224 -0.0149386 0)
(1.0469 -0.0208384 9.24016e-20)
(1.04172 -0.0265304 -1.89501e-19)
(1.03648 -0.0319453 0)
(1.03099 -0.0370227 1.5195e-19)
(1.0251 -0.0416002 -1.03037e-19)
(1.01871 -0.0455143 3.46594e-21)
(1.01174 -0.0485813 2.26614e-19)
(1.00416 -0.0505684 2.46922e-21)
(0.996009 -0.0512131 2.47371e-19)
(0.987419 -0.05021 -2.56799e-19)
(0.97868 -0.0473182 0)
(0.970203 -0.0423774 -1.41653e-19)
(0.96249 -0.0353042 -1.48817e-19)
(0.95613 -0.0261987 0)
(0.951744 -0.015486 -1.56298e-19)
(0.949777 -0.0037603 2.00379e-19)
(0.950477 0.00824336 3.96685e-20)
(0.953755 0.0195379 -2.09345e-19)
(0.959259 0.0295519 -7.44922e-20)
(0.966437 0.037678 -1.21677e-19)
(0.974659 0.0436916 1.32414e-19)
(0.983368 0.0475991 0)
(0.992142 0.0495646 2.40311e-19)
(1.0006 0.0497411 -2.87332e-20)
(1.00852 0.0484139 2.72649e-20)
(1.01586 0.0458819 0)
(1.0226 0.042389 2.49948e-20)
(1.02881 0.0381489 1.19689e-19)
(1.0346 0.0333375 0)
(1.04011 0.0281019 -8.89124e-20)
(1.04552 0.0225426 -8.47672e-20)
(1.05104 0.0167409 0)
(1.05689 0.0107634 8.01609e-20)
(1.06338 0.00466147 -3.90733e-20)
(1.07087 -0.00154407 0)
(1.07991 -0.00783279 -3.66431e-20)
(1.09129 -0.014198 -7.19977e-20)
(1.10632 -0.02067 -6.97315e-20)
(1.12686 -0.02727 3.38431e-20)
(1.14868 -0.0331633 9.54419e-20)
(1.12203 -0.0330999 6.32621e-20)
(0.912705 -0.0198516 -1.24873e-19)
(0.450183 -0.003485 -7.96597e-20)
(0.245939 0.000529494 0)
(0.761126 0.0109706 0)
(1.06725 0.025465 0)
(1.15411 0.0301418 0)
(1.14295 0.0259022 0)
(1.11978 0.0192641 0)
(1.10287 0.0125636 0)
(1.0908 0.00595631 0)
(1.08151 -0.000639598 1.59013e-19)
(1.07392 -0.00725754 0)
(1.06742 -0.0138986 -1.64836e-19)
(1.06158 -0.0205498 0)
(1.05606 -0.0271755 0)
(1.05062 -0.0337287 3.6121e-19)
(1.04499 -0.0401591 0)
(1.03893 -0.0463662 0)
(1.03227 -0.0521943 0)
(1.02481 -0.0574535 2.08108e-19)
(1.01639 -0.0618853 -2.14708e-19)
(1.00693 -0.0651752 0)
(0.996406 -0.0669348 -1.20592e-19)
(0.984914 -0.0666897 -2.6585e-19)
(0.972726 -0.063888 0)
(0.96046 -0.0581534 -1.43254e-19)
(0.948915 -0.0491949 4.13939e-21)
(0.939091 -0.0369634 -4.87093e-19)
(0.932141 -0.0219696 -1.71781e-19)
(0.928976 -0.00521509 -1.34159e-21)
(0.930084 0.0119979 -8.53803e-20)
(0.9353 0.0279929 1.0241e-20)
(0.943894 0.0417588 1.53186e-19)
(0.954781 0.0523815 1.80237e-20)
(0.966847 0.0596998 4.22488e-21)
(0.979213 0.0639477 -7.53064e-19)
(0.99117 0.0654623 1.74452e-19)
(1.00224 0.0646689 2.75897e-20)
(1.01228 0.0621207 5.21172e-20)
(1.02125 0.0582486 2.43525e-20)
(1.02922 0.053411 2.24688e-20)
(1.03634 0.0478965 -2.64408e-19)
(1.0428 0.0419142 -2.47324e-19)
(1.04878 0.0356367 -3.36534e-19)
(1.05452 0.0291738 -7.89597e-20)
(1.06024 0.0226061 0)
(1.06621 0.0159929 1.88853e-20)
(1.07276 0.0093799 0)
(1.08029 0.00278636 -3.48079e-20)
(1.08936 -0.00377815 -3.36663e-20)
(1.1008 -0.0103214 -1.64531e-20)
(1.11594 -0.0168794 6.36049e-20)
(1.13623 -0.023416 0)
(1.15386 -0.0287869 0)
(1.11267 -0.0279109 0)
(0.88994 -0.0159563 1.62917e-20)
(0.437429 -0.0027117 7.58449e-20)
(0.239827 0.000404132 0)
(0.741641 0.00874715 0)
(1.05218 0.0211371 1.60943e-20)
(1.15454 0.0259152 3.03484e-20)
(1.15158 0.0223201 0)
(1.12982 0.0158427 0)
(1.11287 0.00904338 6.76227e-20)
(1.10079 0.00222981 0)
(1.09158 -0.0046693 1.46498e-19)
(1.08411 -0.0117 0)
(1.07772 -0.0188787 -3.04844e-19)
(1.07197 -0.0262074 -7.74745e-20)
(1.06651 -0.0336662 3.21026e-19)
(1.06104 -0.041228 6.90665e-19)
(1.05526 -0.0488936 -1.72813e-19)
(1.0489 -0.0565322 4.56475e-20)
(1.04169 -0.064009 9.17863e-20)
(1.03334 -0.0711374 0)
(1.02359 -0.0776302 0)
(1.01215 -0.0830675 0)
(0.998878 -0.0869198 1.17323e-19)
(0.983743 -0.0884787 -1.3442e-19)
(0.966904 -0.0868008 -8.24704e-19)
(0.949009 -0.080877 1.46938e-19)
(0.931341 -0.0699916 -3.27018e-19)
(0.915604 -0.0536059 -6.99687e-19)
(0.904041 -0.0321933 2.78733e-19)
(0.898669 -0.00741374 -1.93783e-19)
(0.900524 0.0180472 -1.8903e-19)
(0.909279 0.0413942 -2.46085e-20)
(0.923296 0.0604992 -8.37107e-20)
(0.940312 0.0741072 -1.53101e-19)
(0.958317 0.0824151 -2.80084e-19)
(0.975868 0.0861433 -5.11249e-19)
(0.991936 0.086104 1.1271e-19)
(1.00616 0.0833269 -1.07332e-19)
(1.0185 0.0786381 7.51211e-20)
(1.02909 0.0726688 -2.74194e-19)
(1.03817 0.0658878 -8.80438e-20)
(1.04601 0.0586377 -8.0277e-20)
(1.05288 0.0511497 1.58355e-19)
(1.05905 0.0435734 0)
(1.06484 0.036018 -5.44363e-20)
(1.07052 0.0285503 0)
(1.07641 0.0212107 0)
(1.08285 0.0140185 3.38141e-20)
(1.09025 0.0069797 4.89008e-20)
(1.0992 8.71204e-05 3.04669e-20)
(1.11055 -0.00668489 2.93085e-20)
(1.12565 -0.0133737 2.81195e-20)
(1.14529 -0.019878 0)
(1.15801 -0.0248063 -1.40633e-20)
(1.10344 -0.0234705 -2.75496e-20)
(0.870849 -0.0129121 6.32202e-20)
(0.427664 -0.00215839 -2.07363e-19)
(0.234964 0.000321978 0)
(0.725595 0.00707788 -1.86693e-20)
(1.03867 0.0176202 0)
(1.15426 0.0222431 0)
(1.15963 0.0191417 5.69659e-20)
(1.13986 0.0128161 6.00021e-20)
(1.1231 0.00590904 -3.12035e-20)
(1.11116 -0.00112609 0)
(1.1022 -0.00833938 3.31192e-20)
(1.09503 -0.0157943 -6.73396e-20)
(1.08897 -0.0235265 0)
(1.08355 -0.0315633 -7.01509e-20)
(1.07841 -0.0399239 -2.32592e-21)
(1.07324 -0.0486304 -5.63989e-20)
(1.06766 -0.057686 3.69289e-20)
(1.0614 -0.0670249 -3.82678e-21)
(1.05409 -0.0765711 1.72655e-19)
(1.04531 -0.0861685 0)
(1.03461 -0.0955626 3.77604e-19)
(1.02151 -0.104341 -1.20608e-21)
(1.00545 -0.111815 0)
(0.986075 -0.117036 -3.66038e-19)
(0.963215 -0.118583 -1.33895e-19)
(0.937132 -0.114418 5.94647e-19)
(0.9094 -0.102457 5.21581e-21)
(0.883017 -0.080999 0)
(0.862436 -0.0496065 1.96844e-19)
(0.852542 -0.0111831 -1.16094e-19)
(0.855951 0.0286879 1.0694e-19)
(0.871792 0.0641535 -4.00326e-19)
(0.896039 0.0907506 1.72225e-19)
(0.923596 0.10721 3.16814e-19)
(0.950852 0.115053 5.42563e-19)
(0.975447 0.116102 -1.17559e-19)
(0.996544 0.112512 -1.18268e-19)
(1.01418 0.106043 9.56534e-20)
(1.02871 0.0978747 -3.51179e-19)
(1.0406 0.088821 2.57402e-19)
(1.05033 0.0793907 7.94465e-20)
(1.05838 0.0698979 0)
(1.06519 0.0605503 1.01834e-19)
(1.07118 0.0514587 -3.0318e-20)
(1.0767 0.0426766 0)
(1.08206 0.0342228 -6.16112e-20)
(1.08763 0.0260966 -6.21441e-20)
(1.09373 0.0182938 5.87204e-20)
(1.10081 0.0107884 -1.46386e-19)
(1.10949 0.00354957 -5.73249e-20)
(1.12062 -0.00346481 2.70788e-20)
(1.13552 -0.0102976 2.59959e-20)
(1.1541 -0.0167688 -1.24587e-20)
(1.16138 -0.0213136 -3.67047e-20)
(1.09452 -0.0197413 6.08862e-21)
(0.854337 -0.0105176 -7.13742e-21)
(0.41929 -0.0017691 0)
(0.231025 0.00024254 0)
(0.712293 0.00585771 0)
(1.02665 0.0148652 -2.73995e-20)
(1.15354 0.019206 0)
(1.1672 0.0164868 -2.5794e-20)
(1.14992 0.0103216 2.67474e-20)
(1.13359 0.00333308 5.55012e-20)
(1.12193 -0.00389561 0)
(1.11335 -0.0113953 1.16892e-19)
(1.10666 -0.019247 0)
(1.10114 -0.0275107 -2.46955e-19)
(1.09632 -0.0362438 -1.26287e-19)
(1.09183 -0.0455095 -4.03873e-21)
(1.08733 -0.0553469 -1.35255e-19)
(1.08245 -0.0658727 1.35697e-19)
(1.07686 -0.0770747 1.43319e-19)
(1.07014 -0.0889884 -7.15032e-20)
(1.06177 -0.101589 -2.34478e-19)
(1.05108 -0.114773 -7.81624e-20)
(1.03725 -0.128255 1.76866e-19)
(1.01929 -0.1415 0)
(0.995983 -0.153419 -9.29797e-21)
(0.966113 -0.162106 2.47559e-19)
(0.928953 -0.164474 0)
(0.884856 -0.155443 0)
(0.838102 -0.12937 4.20725e-19)
(0.798049 -0.0822708 -7.15106e-21)
(0.77774 -0.0183566 6.24658e-21)
(0.784772 0.0492386 -5.22626e-19)
(0.816604 0.105996 4.55888e-19)
(0.861754 0.142429 3.80279e-19)
(0.907951 0.159057 6.34161e-19)
(0.948841 0.161708 4.40049e-19)
(0.982211 0.155648 2.27613e-19)
(1.00861 0.145042 0)
(1.0291 0.132369 0)
(1.04486 0.119027 1.96734e-19)
(1.05698 0.105751 1.73342e-21)
(1.06644 0.0929574 -7.34708e-20)
(1.07398 0.0808199 -5.98771e-20)
(1.08014 0.0693988 -1.17774e-19)
(1.08544 0.0586829 8.67369e-20)
(1.09025 0.0486282 0)
(1.09494 0.0391862 2.77665e-20)
(1.09987 0.0303025 -2.6249e-20)
(1.10539 0.0219144 0)
(1.11196 0.0139725 0)
(1.12018 0.00641524 -1.72452e-21)
(1.13094 -0.000817464 0)
(1.14545 -0.00777454 0)
(1.16261 -0.0142001 -2.56634e-22)
(1.16419 -0.0184241 0)
(1.08631 -0.0167759 -3.23278e-20)
(0.840342 -0.00872111 0)
(0.411979 -0.00144366 -4.69184e-20)
(0.227694 0.000219904 0)
(0.701115 0.00503287 3.92673e-21)
(1.01609 0.0128393 3.11966e-21)
(1.15262 0.0168711 0)
(1.17429 0.014459 2.88056e-21)
(1.15988 0.00847148 0)
(1.14424 0.00145136 0)
(1.13299 -0.00591214 0)
(1.12494 -0.0136253 0)
(1.11891 -0.0217824 0)
(1.11415 -0.0304685 0)
(1.1102 -0.0397753 0)
(1.10671 -0.0498038 0)
(1.10329 -0.0607078 1.71461e-19)
(1.09967 -0.0726037 -5.91208e-20)
(1.09548 -0.0856123 -1.22267e-19)
(1.09028 -0.0999193 -1.23886e-19)
(1.08353 -0.115722 3.98389e-21)
(1.07444 -0.133226 -7.75028e-20)
(1.06195 -0.152582 -2.5205e-21)
(1.04451 -0.173783 3.37718e-19)
(1.01987 -0.196405 -2.08827e-19)
(0.984796 -0.21891 0)
(0.935276 -0.237713 2.47301e-19)
(0.867029 -0.24446 -1.36553e-18)
(0.780194 -0.222388 8.59036e-19)
(0.693317 -0.152146 5.51212e-19)
(0.645547 -0.0344663 2.18507e-18)
(0.662054 0.0948292 0)
(0.734973 0.191734 9.99007e-19)
(0.826118 0.235751 -1.38706e-18)
(0.904312 0.240382 -4.0908e-19)
(0.962534 0.226016 -1.1237e-19)
(1.00415 0.204732 -5.82836e-19)
(1.03346 0.181958 3.83901e-21)
(1.0541 0.160018 4.57809e-19)
(1.06879 0.139848 -3.65117e-20)
(1.0794 0.121559 1.77415e-19)
(1.08721 0.10509 5.59154e-20)
(1.09312 0.0902171 1.00248e-19)
(1.09781 0.0767471 0)
(1.10175 0.0644943 2.50695e-20)
(1.10537 0.0532812 3.99759e-20)
(1.10905 0.0429607 4.19867e-20)
(1.11304 0.0334278 -2.27702e-20)
(1.11775 0.0245622 7.57248e-20)
(1.12362 0.016275 -1.92101e-20)
(1.13125 0.00847163 -8.74931e-20)
(1.14153 0.00108806 -9.68209e-21)
(1.15548 -0.00593831 -2.00057e-20)
(1.17086 -0.012272 -1.86121e-20)
(1.16654 -0.016196 1.00222e-20)
(1.07871 -0.0145407 1.00349e-20)
(0.828229 -0.00746986 7.97086e-22)
(0.405762 -0.00126967 2.18921e-20)
(0.2245 0.000303585 7.87181e-20)
(0.691228 0.00458662 -1.12601e-19)
(1.00655 0.0115179 1.79902e-22)
(1.15155 0.0152828 4.07921e-20)
(1.18098 0.0131374 -4.03434e-20)
(1.16974 0.00736483 -4.1315e-20)
(1.15498 0.00039439 0)
(1.14425 -0.00700354 1.32828e-22)
(1.13684 -0.0148106 -2.17665e-20)
(1.1316 -0.0231288 1.10398e-20)
(1.12778 -0.0320703 -1.11307e-20)
(1.12492 -0.041762 -1.11366e-20)
(1.1227 -0.0523406 5.77736e-21)
(1.12081 -0.063984 2.21774e-20)
(1.11901 -0.0768888 3.8663e-20)
(1.11698 -0.0913023 7.65571e-20)
(1.11436 -0.107577 2.89849e-19)
(1.11071 -0.126149 5.32651e-20)
(1.10533 -0.147611 0)
(1.09724 -0.172829 0)
(1.08494 -0.202852 -1.1353e-19)
(1.06557 -0.23911 2.92496e-20)
(1.03417 -0.283088 -4.27897e-19)
(0.981596 -0.335376 1.95685e-19)
(0.889989 -0.39175 -2.56633e-19)
(0.72908 -0.416497 0)
(0.514018 -0.326301 3.55193e-18)
(0.384187 -0.0770812 -1.17026e-18)
(0.428981 0.214753 -5.11936e-18)
(0.626236 0.390368 2.01033e-18)
(0.820176 0.409437 0)
(0.9428 0.359247 -8.02516e-19)
(1.01173 0.304449 2.60105e-19)
(1.0521 0.256445 2.14352e-19)
(1.07652 0.216588 1.00484e-19)
(1.09177 0.1838 8.98018e-20)
(1.1016 0.156517 1.28375e-19)
(1.10815 0.133451 0)
(1.11251 0.113708 -2.87415e-20)
(1.11557 0.0965561 2.22698e-19)
(1.11793 0.0814648 0)
(1.1199 0.0680442 -1.4086e-21)
(1.12186 0.0559985 -8.03212e-21)
(1.1241 0.0450854 -2.64522e-20)
(1.12691 0.0351239 -8.59856e-21)
(1.1306 0.0259656 1.6078e-20)
(1.13561 0.0174844 -8.47809e-21)
(1.14251 0.00957079 -8.88884e-21)
(1.15217 0.00212983 -8.4215e-22)
(1.16541 -0.00488241 6.53504e-21)
(1.17875 -0.0110711 5.62865e-21)
(1.16856 -0.0147066 -1.15335e-20)
(1.07187 -0.0130567 -1.66998e-20)
(0.817819 -0.00672877 -9.57673e-21)
(0.400383 -0.00122106 -1.78611e-20)
(0.216867 0.000370958 -1.09467e-18)
(0.679202 0.0044684 0)
(0.996183 0.0107752 -3.04763e-19)
(1.14983 0.0143831 2.76555e-19)
(1.18721 0.0125511 2.73549e-19)
(1.17944 0.00708241 0)
(1.16571 0.000278562 2.83365e-19)
(1.15557 -0.00702307 0)
(1.14887 -0.0147731 0)
(1.14449 -0.0230739 1.43634e-19)
(1.14171 -0.0320559 0)
(1.14011 -0.0418546 -1.39605e-19)
(1.13939 -0.0526165 -4.68825e-21)
(1.13931 -0.0645509 1.7963e-20)
(1.1397 -0.0779097 2.70887e-20)
(1.14038 -0.0930044 2.6896e-20)
(1.14116 -0.110262 1.66139e-20)
(1.14186 -0.130287 -2.05049e-21)
(1.14222 -0.153937 -3.65264e-20)
(1.14193 -0.182589 3.05912e-20)
(1.14046 -0.21835 -1.52382e-19)
(1.13663 -0.264904 1.76415e-20)
(1.12846 -0.328929 0)
(1.11159 -0.426291 0)
(1.05306 -0.577307 6.4797e-20)
(0.805488 -0.666499 0)
(0.210991 -0.358781 6.42264e-17)
(0.357018 0.450406 -1.00935e-19)
(0.901647 0.657753 -2.33008e-21)
(1.0967 0.489543 3.83453e-21)
(1.1216 0.367275 2.82822e-20)
(1.13332 0.28993 1.01845e-19)
(1.13884 0.235815 1.16909e-19)
(1.14117 0.195559 -1.83856e-20)
(1.14177 0.163915 -6.04414e-22)
(1.14158 0.138208 8.3394e-21)
(1.14095 0.116742 -8.92266e-23)
(1.14017 0.0984596 -2.13676e-20)
(1.13946 0.0826086 4.01056e-21)
(1.13901 0.0686804 -1.15856e-20)
(1.139 0.0563011 -6.64289e-21)