/*--------------------------------*- C++ -*----------------------------------*\
  =========                 |
  \\      /  F ield         | OpenFOAM: The Open Source CFD Toolbox
   \\    /   O peration     | Website:  https://openfoam.org
    \\  /    A nd           | Version:  7
     \\/     M anipulation  |
\*---------------------------------------------------------------------------*/
FoamFile
{
    version     2.0;
    format      ascii;
    class       volScalarField;
    location    "30";
    object      k;
}
// * * * * * * * * * * * * * * * * * * * * * * * * * * * * * * * * * * * * * //

dimensions      [0 2 -2 0 0 0 0];

internalField   nonuniform List<scalar> 
17475
(
0.00763365
0.0124983
0.0125514
0.0125508
0.0125506
0.0125505
0.0125505
0.0125505
0.0125504
0.0125502
0.0125503
0.0125506
0.0125503
0.0125503
0.0125505
0.0125503
0.0125503
0.0125505
0.0125503
0.0125502
0.0125508
0.012551
0.0125496
0.0125515
0.0125469
0.0125588
0.0125589
0.012559
0.0125591
0.0125589
0.0125588
0.0125587
0.0125587
0.0125586
0.0125586
0.0125585
0.0125584
0.0125582
0.0125586
0.0125629
0.0125696
0.012576
0.0125821
0.0125878
0.0125928
0.0125975
0.0126018
0.0126057
0.0126092
0.0126126
0.0126156
0.0126185
0.0126207
0.0126101
0.0120187
0.00024617
0.00440835
0.00528568
0.00530432
0.0052949
0.00529058
0.00528854
0.00528726
0.00528655
0.00528602
0.00528571
0.00528543
0.00528523
0.00528508
0.00528491
0.00528481
0.0052847
0.0052846
0.00528449
0.00528444
0.00528438
0.00528431
0.00528533
0.00528309
0.00528705
0.00529098
0.0052939
0.00529405
0.0052941
0.00529367
0.00529351
0.00529349
0.00529349
0.00529349
0.0052935
0.00529346
0.00529344
0.00529319
0.00529226
0.00529315
0.00529501
0.00529716
0.00529942
0.0053016
0.00530376
0.00530581
0.00530789
0.00531002
0.00531241
0.00531525
0.00531907
0.00532439
0.00532165
0.00502944
0.00162954
3.09348e-05
0.00184681
0.0030774
0.00319518
0.00318642
0.0031775
0.00317251
0.00316952
0.0031677
0.00316641
0.00316551
0.00316484
0.00316434
0.0031639
0.00316353
0.00316322
0.00316292
0.00316265
0.0031624
0.00316214
0.00316189
0.00316218
0.00316177
0.00316333
0.00316437
0.00316579
0.00316768
0.0031685
0.0031685
0.00316834
0.00316815
0.00316821
0.00316832
0.00316845
0.00316859
0.00316873
0.00316887
0.00316857
0.00316823
0.00316853
0.00316913
0.00316991
0.00317086
0.00317195
0.0031732
0.00317462
0.00317632
0.00317851
0.00318153
0.00318602
0.003193
0.00320141
0.00315741
0.00249637
0.000283203
9.87503e-06
0.000849252
0.00201217
0.002236
0.00224431
0.00223421
0.00222739
0.00222309
0.00222024
0.00221826
0.00221687
0.00221582
0.00221497
0.00221426
0.00221366
0.00221313
0.00221264
0.00221219
0.00221174
0.00221131
0.00221118
0.00221079
0.00221146
0.00221217
0.00221291
0.00221346
0.00221414
0.00221488
0.00221513
0.00221516
0.00221499
0.00221513
0.00221538
0.00221565
0.00221594
0.00221626
0.00221656
0.00221645
0.00221647
0.00221692
0.00221745
0.0022181
0.00221891
0.00221992
0.00222118
0.00222277
0.00222482
0.00222762
0.00223169
0.00223785
0.002247
0.00224981
0.00213824
0.00133306
8.90216e-05
4.47302e-06
0.000440002
0.00138581
0.00168606
0.00171903
0.00171201
0.00170445
0.00169933
0.0016958
0.00169332
0.00169151
0.00169011
0.00168901
0.00168806
0.00168723
0.0016865
0.00168584
0.00168519
0.00168456
0.00168414
0.00168358
0.00168375
0.00168393
0.00168413
0.0016844
0.00168474
0.00168506
0.00168536
0.0016857
0.00168584
0.00168582
0.00168606
0.00168644
0.00168687
0.00168731
0.00168781
0.00168819
0.00168826
0.00168873
0.00168935
0.00169001
0.00169079
0.00169171
0.00169285
0.00169431
0.00169619
0.00169863
0.00170201
0.00170684
0.00171395
0.0017226
0.00171139
0.00153762
0.000771765
4.18947e-05
2.44859e-06
0.000256468
0.000987027
0.00132589
0.00138438
0.00138331
0.00137599
0.00137049
0.00136655
0.00136369
0.00136158
0.00135994
0.00135861
0.00135748
0.00135646
0.00135554
0.00135471
0.00135387
0.0013532
0.00135243
0.0013522
0.00135203
0.00135186
0.00135172
0.00135167
0.00135174
0.00135185
0.00135201
0.00135224
0.00135255
0.00135267
0.00135303
0.00135354
0.00135411
0.00135471
0.00135538
0.00135583
0.00135624
0.00135697
0.00135776
0.00135859
0.00135952
0.00136059
0.0013619
0.00136358
0.00136574
0.0013685
0.00137224
0.00137751
0.00138464
0.00139015
0.00136186
0.00114474
0.000485614
2.44416e-05
1.51932e-06
0.000164997
0.000724439
0.0010701
0.00115128
0.00115765
0.00115172
0.00114621
0.00114206
0.00113897
0.00113666
0.00113484
0.00113332
0.00113202
0.00113085
0.00112976
0.00112878
0.00112788
0.00112689
0.00112624
0.00112577
0.00112537
0.00112492
0.00112451
0.0011242
0.00112409
0.00112398
0.00112403
0.00112424
0.00112466
0.00112496
0.00112538
0.00112603
0.00112675
0.0011275
0.00112834
0.00112894
0.00112966
0.00113058
0.00113153
0.00113253
0.0011336
0.00113481
0.00113629
0.00113814
0.00114054
0.00114351
0.00114736
0.00115263
0.00115926
0.0011602
0.00111509
0.000875012
0.000330077
1.60577e-05
1.0315e-06
0.000114797
0.000547644
0.000879385
0.000978965
0.000993171
0.00098941
0.000984182
0.000980034
0.000976864
0.000974428
0.000972485
0.00097077
0.000969259
0.000967998
0.000966779
0.000965655
0.000964508
0.000963565
0.000962678
0.00096196
0.00096135
0.00096066
0.000959972
0.000959428
0.000959159
0.000958907
0.000958846
0.000959036
0.00095951
0.000959982
0.000960484
0.000961267
0.00096217
0.000963109
0.000964072
0.000964912
0.000965922
0.000967026
0.000968127
0.000969281
0.000970482
0.000971835
0.000973452
0.000975437
0.000977918
0.000980884
0.000984771
0.000989969
0.000995405
0.000991018
0.000931312
0.000684904
0.000238133
1.12672e-05
7.47571e-07
8.45095e-05
0.000425891
0.00073299
0.000846355
0.000868199
0.000867166
0.000862503
0.000858453
0.000855234
0.000852791
0.000850762
0.000848847
0.000847142
0.000845845
0.000844437
0.00084301
0.000841921
0.000840695
0.000839487
0.000838514
0.000837672
0.000836671
0.000835697
0.000835018
0.000834572
0.000834126
0.000833955
0.000834134
0.000834744
0.000835365
0.000836001
0.00083694
0.000838048
0.000839162
0.000840267
0.00084145
0.000842709
0.000843927
0.000845173
0.000846523
0.000847795
0.000849224
0.000850949
0.00085293
0.000855388
0.000858432
0.000862261
0.000867134
0.000870848
0.000860995
0.000789011
0.000547496
0.000180443
8.41182e-06
5.6866e-07
6.49146e-05
0.000340002
0.000618684
0.000741262
0.000770163
0.000772251
0.000768515
0.000764441
0.00076115
0.000758861
0.000756792
0.000754802
0.000752988
0.000751693
0.000750072
0.000748491
0.000747196
0.000745538
0.000743936
0.000742714
0.000741713
0.000740429
0.000739121
0.000738176
0.000737458
0.000736778
0.000736558
0.000736828
0.000737558
0.000738316
0.000739133
0.000740229
0.000741537
0.000742794
0.000744189
0.00074579
0.000747232
0.000748428
0.000749839
0.00075141
0.000752749
0.000754191
0.000755825
0.000757739
0.00076035
0.000763457
0.000766983
0.000771309
0.000773271
0.000758351
0.00067751
0.000448203
0.0001424
6.58527e-06
4.48502e-07
5.15468e-05
0.000277969
0.000528383
0.000655902
0.000691154
0.00069638
0.00069376
0.000689596
0.000686123
0.000684076
0.000682292
0.000680506
0.000678612
0.000677246
0.000675656
0.000673854
0.000672382
0.000670391
0.000668284
0.000666689
0.000665568
0.000664108
0.000662548
0.000661281
0.00066028
0.000659314
0.000659084
0.000659464
0.000660185
0.000660997
0.000662038
0.000663429
0.000664998
0.000666279
0.000668104
0.000669918
0.000671501
0.000672711
0.000674205
0.000675819
0.000677309
0.000678707
0.000680118
0.000682337
0.000685158
0.000688308
0.000691404
0.000695026
0.000694954
0.000675666
0.000588692
0.000374707
0.000115906
5.33704e-06
3.64362e-07
4.20851e-05
0.000232265
0.000456642
0.000585495
0.000626388
0.000634376
0.000632779
0.000628481
0.00062481
0.000623131
0.000622067
0.000620525
0.000618432
0.000616969
0.000615295
0.000613142
0.000611546
0.000609364
0.000607017
0.000605319
0.000603934
0.000602241
0.000600574
0.000599204
0.000597954
0.000596778
0.000596407
0.000596687
0.000597422
0.000598238
0.000599553
0.000601285
0.00060305
0.0006045
0.000606527
0.000608677
0.000610341
0.000611487
0.000613033
0.000614833
0.000616396
0.000617489
0.000619112
0.000621987
0.000624956
0.00062799
0.000630452
0.000632952
0.000631261
0.000608221
0.000517415
0.000319534
9.68411e-05
4.45289e-06
3.03756e-07
3.52345e-05
0.000198065
0.000399536
0.000526817
0.000572435
0.000582702
0.000582358
0.000577509
0.000573204
0.00057221
0.00057241
0.000571003
0.000568747
0.000567161
0.000565137
0.000563043
0.000561697
0.000559485
0.000557213
0.000555525
0.00055351
0.000551376
0.000550239
0.000549354
0.000547522
0.000545907
0.000545616
0.000546045
0.00054637
0.000546966
0.000548687
0.000550685
0.000552462
0.000554142
0.000556092
0.00055862
0.000560531
0.000561551
0.000562317
0.000564305
0.000566532
0.000567988
0.00056963
0.00057272
0.000576085
0.000578472
0.000579909
0.000581767
0.000579152
0.000552981
0.000460032
0.000277562
8.27818e-05
3.81183e-06
2.58706e-07
3.01186e-05
0.000172112
0.000354041
0.000478329
0.000526479
0.000538175
0.000538712
0.000533525
0.000529978
0.000529654
0.00053005
0.000528838
0.000526708
0.000524901
0.000522529
0.000520734
0.000519557
0.000517524
0.000515109
0.00051327
0.00051101
0.000508923
0.000508189
0.00050805
0.000506533
0.000504367
0.000503274
0.000503323
0.000503733
0.000504664
0.000505987
0.000507685
0.00050975
0.000511791
0.00051347
0.000516144
0.000517924
0.00051884
0.00051962
0.000521924
0.000524956
0.000526871
0.000528489
0.000531645
0.000534988
0.000535987
0.000536681
0.000538078
0.000534864
0.000506937
0.000413707
0.000244974
7.19864e-05
3.30059e-06
2.24609e-07
2.62302e-05
0.000152095
0.000317444
0.000435558
0.000484981
0.000497848
0.000498802
0.000494036
0.000490479
0.000491072
0.000492224
0.000490862
0.000488163
0.000486362
0.000484243
0.000482694
0.000481782
0.000480103
0.000477602
0.000475586
0.000473562
0.000472183
0.000472012
0.000474002
0.00047464
0.000472395
0.000470982
0.000470542
0.000470324
0.000470379
0.000468957
0.000469235
0.000471837
0.000474467
0.000476037
0.000478299
0.000480001
0.000480851
0.000481604
0.000484276
0.00048762
0.000489928
0.000492315
0.000495537
0.000498174
0.000498088
0.000497812
0.000498869
0.000495459
0.000466516
0.00037571
0.00021995
6.38034e-05
2.903e-06
1.98379e-07
2.32448e-05
0.00013633
0.000287329
0.00039849
0.000448133
0.000461442
0.000462677
0.000459193
0.000456127
0.000457566
0.000458748
0.000456424
0.000453308
0.000452089
0.000450376
0.000448384
0.000447812
0.000446825
0.000444202
0.000441717
0.000440958
0.000442003
0.00044497
0.000451579
0.00046439
0.000472286
0.000475878
0.000473963
0.000465995
0.000453379
0.000440364
0.00043887
0.0004393
0.000442312
0.000443133
0.000444341
0.000445805
0.000446886
0.000447522
0.000450063
0.000453542
0.00045606
0.000458763
0.000461829
0.000464306
0.000463624
0.000462373
0.00046352
0.000460641
0.00043105
0.000343459
0.000199879
5.73114e-05
2.59013e-06
1.75841e-07
2.0792e-05
0.000123438
0.000261826
0.000366033
0.000415435
0.000429507
0.000430711
0.000428466
0.000425687
0.000426881
0.000427601
0.000424534
0.000421452
0.00042033
0.000419269
0.000417766
0.000416749
0.000415887
0.000414144
0.000412935
0.00041395
0.000417772
0.000437242
0.000473466
0.000482484
0.000440087
0.000397286
0.000398295
0.000471373
0.000482588
0.000446179
0.000418172
0.000410621
0.000412227
0.000413333
0.000413511
0.000414065
0.000415139
0.00041593
0.000418549
0.000421653
0.000423531
0.000426579
0.00042952
0.000432745
0.000432114
0.000430004
0.000431521
0.000428927
0.000399796
0.000316101
0.000183525
5.21035e-05
2.34104e-06
1.4021e-07
1.82091e-05
0.000111161
0.000239209
0.000336886
0.000386788
0.000402275
0.000402784
0.000401114
0.000398802
0.000397847
0.000399549
0.00039539
0.000392404
0.000391876
0.00039083
0.000389384
0.000388959
0.000387944
0.000384912
0.000383487
0.000384956
0.00041156
0.000442431
0.00038106
0.00013019
2.19084e-06
1.19786e-05
0.000317247
0.000432392
0.000431206
0.000390359
0.000380656
0.000381034
0.000384263
0.000386447
0.000386736
0.000387725
0.000390378
0.000393379
0.000394504
0.00039697
0.000400758
0.00040367
0.000403384
0.0004014
0.000403266
0.00040001
0.000371228
0.000291655
0.000169188
4.75177e-05
2.127e-06
5.22902e-08
1.29769e-05
9.54173e-05
0.000215349
0.000308382
0.000361397
0.000378585
0.000378908
0.000377628
0.000374853
0.000369746
0.000372868
0.000369643
0.000367176
0.000366572
0.000365623
0.000364311
0.000365253
0.000361652
0.000354867
0.000356869
0.000374097
0.000401732
0.000331616
9.04894e-05
3.87941e-07
0.000194288
0.000397162
0.000385416
0.000367761
0.000350088
0.000356381
0.000361728
0.000361634
0.000363515
0.000366358
0.000369311
0.000370308
0.000371161
0.000375252
0.000377123
0.000377386
0.000376598
0.000378214
0.000373924
0.000343975
0.000268678
0.000156027
4.27217e-05
1.7819e-06
7.17822e-08
1.40036e-05
8.97856e-05
0.00019884
0.000287185
0.000336245
0.000351868
0.000350005
0.0003494
0.000348827
0.000347012
0.000345966
0.000342939
0.000342228
0.000339081
0.000339535
0.000339403
0.000340207
0.000337589
0.000335241
0.000358772
0.000364778
0.00036335
0.00016399
1.06564e-05
5.15135e-05
0.000301457
0.000385865
0.000390964
0.000343117
0.000334404
0.000336649
0.000335529
0.000336631
0.000342378
0.000346187
0.000346798
0.000343898
0.000346338
0.000349416
0.00035089
0.000351724
0.000352336
0.000346722
0.000316765
0.000247317
0.000143367
4.11219e-05
2.00421e-06
1.03514e-07
1.38253e-05
8.56919e-05
0.000184909
0.00026718
0.000313409
0.000328343
0.000328132
0.000327904
0.000326739
0.000326285
0.000323033
0.000320034
0.000319799
0.000318832
0.000316402
0.000317628
0.000319916
0.00031594
0.000319698
0.000343763
0.000355757
0.000302127
8.81216e-05
5.24715e-06
9.13383e-08
4.1148e-07
2.77857e-05
0.000211055
0.000357839
0.000373496
0.000334928
0.000310851
0.000316922
0.000315437
0.000314259
0.000316779
0.00032275
0.000323744
0.000321696
0.00032244
0.000326322
0.000326624
0.00032881
0.00032765
0.000320644
0.000291511
0.000226948
0.0001312
3.74294e-05
1.70913e-06
1.05874e-07
1.27778e-05
7.93584e-05
0.000171022
0.000241206
0.000290397
0.000302584
0.000307688
0.000305447
0.000302834
0.000308739
0.000298367
0.000294723
0.000303057
0.000294264
0.000299807
0.000297509
0.000298964
0.000299997
0.000320865
0.000334913
0.000326901
0.000250616
6.4602e-05
8.07552e-06
1.01692e-05
1.98343e-05
2.91529e-05
2.76316e-05
2.01433e-05
7.12114e-06
2.48676e-05
0.000162788
0.00033443
0.000365445
0.000326528
0.000300023
0.000291229
0.000287656
0.000298865
0.000298919
0.000302711
0.000301031
0.000299265
0.000296462
0.000306362
0.000300959
0.000301393
0.000308656
0.000299536
0.000271805
0.00021
0.000121435
3.40376e-05
1.52059e-06
9.95087e-08
1.18462e-05
7.38599e-05
0.000159361
0.000223113
0.000268783
0.000282991
0.00028259
0.000287004
0.000290761
0.000292448
0.000286995
0.000287777
0.00028645
0.000287223
0.000279314
0.000282742
0.000285771
0.000287294
0.000322482
0.000327835
0.000332791
0.000213243
5.83659e-05
2.10881e-05
7.5586e-05
0.000163497
0.00022088
0.000209231
0.000132628
4.27999e-05
3.07894e-05
0.00014374
0.000306936
0.000350302
0.000337648
0.000294195
0.000287745
0.000278458
0.000286062
0.000282298
0.000284927
0.000280268
0.000282531
0.000278924
0.000288485
0.000283328
0.000287145
0.00029334
0.000279964
0.000252753
0.00019528
0.000112599
3.12358e-05
1.37804e-06
9.2648e-08
1.10038e-05
6.68562e-05
0.000146983
0.000202843
0.000256875
0.000268163
0.000272238
0.000266174
0.000280755
0.000283183
0.000288521
0.000274769
0.000275698
0.000276256
0.000266405
0.000269906
0.000275347
0.000278502
0.000306805
0.000327413
0.000312418
0.000185084
6.44459e-05
4.81217e-05
0.000142247
0.000261521
0.000341502
0.000343022
0.000264257
0.00012543
5.24776e-05
0.000136822
0.000277628
0.000336951
0.000332097
0.000298227
0.000276165
0.000270466
0.000270397
0.000269415
0.000273268
0.000271393
0.000265468
0.000268316
0.000274205
0.000267569
0.000273973
0.000278403
0.000260792
0.000234729
0.000182417
0.000105162
2.86841e-05
1.25812e-06
8.42174e-08
9.8723e-06
6.21002e-05
0.000137898
0.000190469
0.000244412
0.000256562
0.000255571
0.000262559
0.000267877
0.000265435
0.000278025
0.000274413
0.000261251
0.000262651
0.000268534
0.000257411
0.000261185
0.000277861
0.000301064
0.000309044
0.000293483
0.000175205
8.39755e-05
8.22383e-05
0.000190786
0.000340517
0.000458102
0.000480711
0.000407021
0.000247438
0.000102122
0.000135508
0.000248261
0.000301803
0.000308977
0.000287035
0.000274364
0.00026428
0.00025355
0.000251976
0.000257606
0.000259917
0.00025371
0.000265414
0.000256233
0.000261321
0.000256395
0.000253178
0.00024445
0.000219026
0.000170801
9.73989e-05
2.63028e-05
1.15046e-06
8.09859e-08
9.58491e-06
6.09491e-05
0.000130636
0.000184663
0.00022656
0.000240043
0.000246131
0.00024729
0.00025392
0.000258384
0.000263697
0.00027581
0.000263712
0.000261985
0.000269989
0.000259397
0.000256669
0.000287221
0.000313381
0.000306371
0.000273538
0.000180776
0.000119808
0.000133892
0.000254859
0.000451587
0.000614646
0.000647196
0.000561889
0.000381599
0.00018291
0.000161169
0.000225653
0.000293016
0.000318489
0.000278917
0.000259325
0.000256352
0.000247628
0.000254472
0.000248808
0.000244343
0.000249491
0.000256463
0.000253226
0.000247492
0.000251629
0.000245057
0.000236399
0.000205075
0.000155437
8.95698e-05
2.40357e-05
1.04011e-06
7.7575e-08
9.09743e-06
5.80012e-05
0.000124251
0.000185643
0.000214295
0.000232164
0.000242447
0.000247113
0.000255092
0.000268096
0.000261475
0.00027367
0.00026788
0.000257403
0.000254682
0.000259681
0.000253868
0.00028721
0.000297495
0.00029395
0.000252703
0.000208776
0.000179369
0.000222529
0.000351999
0.000618143
0.000837208
0.00086708
0.000724778
0.000508497
0.000290071
0.000212672
0.000223123
0.000278501
0.000298324
0.000280093
0.000255816
0.00024944
0.000242983
0.000242369
0.000236259
0.000250336
0.000238526
0.000240327
0.000249963
0.000239348
0.000237135
0.000235328
0.000221577
0.000188434
0.000148449
8.25859e-05
2.19104e-05
9.49614e-07
7.48447e-08
8.68328e-06
5.57823e-05
0.000120853
0.000173987
0.000209569
0.000230093
0.000244937
0.000266481
0.000271586
0.000257276
0.00026355
0.000257697
0.000260714
0.000254575
0.000263733
0.000245653
0.000271175
0.000269373
0.000290086
0.000296787
0.000248818
0.000246711
0.000268919
0.00036431
0.000515215
0.000887594
0.00115206
0.00113963
0.000916539
0.00065111
0.00041546
0.000285206
0.000259567
0.000291468
0.00029269
0.000276836
0.00025453
0.000244591
0.000255689
0.000234982
0.000228963
0.000245658
0.000232751
0.000232666
0.000240674
0.000239513
0.000232957
0.000223084
0.000214488
0.000179695
0.000137072
7.91798e-05
2.12127e-05
9.009e-07
7.43319e-08
8.61866e-06
5.42274e-05
0.000119408
0.00017448
0.000231884
0.000231728
0.000249834
0.000255516
0.000256698
0.000257048
0.000273403
0.000256487
0.000254874
0.000278995
0.000270155
0.000246686
0.000251798
0.000279902
0.00028533
0.000293035
0.000249322
0.000288568
0.000384279
0.000577158
0.000811963
0.00132502
0.00155778
0.00146073
0.001161
0.000830485
0.000551684
0.000362033
0.000275363
0.000286545
0.000313912
0.000285341
0.000261111
0.000256096
0.000252707
0.000232781
0.000232813
0.000234919
0.000233164
0.000240656
0.000236008
0.000247696
0.00023667
0.000214473
0.000201753
0.000173995
0.00013359
7.74954e-05
2.15537e-05
8.94002e-07
7.48768e-08
8.67579e-06
5.46323e-05
0.000120626
0.000171452
0.000225689
0.000240944
0.000244237
0.000252641
0.000274199
0.000259291
0.000263452
0.000254369
0.000252751
0.000260705
0.000263141
0.000252248
0.000251974
0.000266963
0.000299482
0.000281311
0.00025685
0.000321172
0.000511982
0.000885274
0.0013287
0.00198917
0.00202585
0.0018257
0.00147558
0.0010615
0.000690462
0.000407151
0.000281356
0.000282059
0.000291809
0.00027461
0.000256719
0.00024699
0.000247623
0.000244605
0.000242737
0.000245618
0.000248413
0.00024233
0.000238479
0.000235052
0.000232476
0.000212177
0.000208044
0.000182112
0.000133817
8.07476e-05
2.0607e-05
8.63427e-07
7.45146e-08
8.51869e-06
5.42518e-05
0.000129247
0.000172321
0.000214522
0.000236546
0.000262255
0.000253806
0.000265375
0.000265803
0.000262835
0.000270625
0.000257158
0.000259564
0.000249955
0.000259755
0.00025363
0.000265945
0.000283844
0.000273513
0.000262443
0.000342756
0.000622183
0.00128962
0.00212347
0.00281016
0.0025209
0.00224713
0.00187637
0.0013381
0.00079538
0.000416826
0.0002824
0.000299565
0.000301782
0.000266345
0.000251918
0.000255431
0.000253414
0.000263783
0.000251427
0.000258666
0.000250686
0.000275698
0.00023735
0.000238852
0.000229233
0.000220202
0.000200007
0.000175697
0.000144959
7.84752e-05
1.98779e-05
8.29188e-07
7.29106e-08
8.36359e-06
5.49657e-05
0.000127708
0.000173031
0.000210198
0.000232386
0.000250525
0.000256408
0.000265421
0.000265982
0.000266266
0.000271756
0.000264369
0.000262106
0.000249182
0.00025551
0.000256298
0.000263251
0.000297109
0.000276325
0.000282754
0.000344758
0.000699437
0.00178007
0.00315599
0.00371308
0.0029745
0.00275219
0.00237429
0.00161177
0.000867378
0.000412708
0.000284785
0.00029888
0.000297022
0.000276477
0.000262779
0.000261682
0.000257116
0.000254287
0.000252448
0.00026124
0.000285953
0.000265203
0.000247087
0.000237312
0.000234634
0.000220013
0.000201199
0.000174282
0.000139646
7.7077e-05
1.93192e-05
8.09252e-07
7.32231e-08
8.3853e-06
5.57101e-05
0.00012594
0.000176457
0.000215053
0.000232199
0.000262367
0.000269887
0.000274783
0.000267218
0.000285461
0.000287332
0.000279869
0.000275983
0.000254845
0.00025332
0.000258096
0.000264239
0.000277885
0.000304645
0.000283554
0.00035443
0.000698153
0.00199651
0.00410061
0.00443048
0.00337315
0.0033061
0.00290903
0.00177502
0.000806383
0.000396772
0.00031222
0.000285923
0.000287487
0.000275037
0.000274374
0.000261465
0.000279744
0.000265852
0.000273064
0.000270444
0.000272738
0.000272072
0.00025162
0.000245032
0.000235119
0.000222402
0.000200633
0.000186061
0.000137715
7.67585e-05
1.93261e-05
7.9441e-07
7.31927e-08
8.39048e-06
5.65218e-05
0.000130171
0.000188626
0.000219584
0.00023372
0.000256683
0.000273978
0.000280072
0.000292865
0.000284271
0.000281458
0.000283883
0.000278257
0.000270831
0.000266382
0.000269681
0.000267525
0.000277552
0.000286071
0.000286101
0.000352312
0.000651785
0.00193942
0.00465462
0.00483805
0.00369535
0.00389885
0.00334786
0.00177816
0.000710599
0.000372064
0.000295128
0.000285449
0.000281644
0.000272325
0.000276419
0.000266812
0.000287271
0.000269018
0.000278089
0.000264334
0.000278752
0.000269178
0.000260194
0.000263664
0.000238435
0.000232759
0.000204803
0.000184066
0.000137861
7.63602e-05
1.9219e-05
7.89561e-07
7.33653e-08
8.43778e-06
5.72991e-05
0.000131955
0.000191312
0.000237571
0.000240586
0.000264819
0.000275193
0.000278958
0.000280306
0.000280554
0.00028121
0.000285517
0.000282962
0.000276581
0.000262872
0.000266995
0.000281148
0.000299294
0.000303097
0.000309121
0.000358574
0.000588753
0.00169242
0.00470541
0.00497231
0.00394236
0.00442605
0.00360151
0.00168533
0.000649989
0.000359566
0.000292125
0.000298821
0.000279503
0.000272423
0.000273159
0.00028699
0.00028827
0.000270665
0.000271407
0.000260289
0.000280645
0.000271725
0.000258156
0.000256722
0.000247171
0.000239128
0.000211131
0.000184056
0.000141292
7.76518e-05
1.9481e-05
7.94516e-07
7.56558e-08
8.89364e-06
6.12845e-05
0.000156095
0.000206342
0.00023063
0.000251037
0.000290085
0.000281391
0.000284446
0.000281629
0.000285029
0.000312171
0.000286536
0.000283123
0.00028942
0.000291767
0.000269527
0.000283533
0.000300069
0.000291174
0.000299213
0.000342537
0.000528177
0.00141968
0.00434298
0.00489404
0.00408396
0.00476748
0.00362818
0.00156356
0.000602216
0.000346343
0.000295824
0.000299709
0.000281564
0.000281015
0.00027671
0.000278966
0.000272414
0.00026576
0.000265886
0.000266006
0.000271352
0.00027085
0.000262428
0.000280307
0.000255341
0.000260612
0.000235385
0.00019099
0.000148469
8.09158e-05
1.9451e-05
7.86611e-07
7.79858e-08
9.08416e-06
6.35333e-05
0.0001522
0.000211899
0.000234888
0.000278348
0.000282653
0.000297045
0.000295481
0.000305763
0.000299742
0.000318147
0.000302984
0.000294386
0.000289186
0.000294352
0.000286631
0.000317699
0.00029398
0.000302824
0.000299655
0.000340003
0.000488579
0.00117267
0.00374722
0.00460475
0.00408495
0.00482591
0.00355408
0.00144786
0.00056568
0.000343671
0.000314289
0.000294747
0.000284886
0.000284429
0.00028393
0.000285207
0.000289642
0.000265921
0.000273092
0.000283918
0.000273616
0.000271837
0.000292384
0.000287487
0.000279824
0.000275913
0.000236033
0.000191218
0.000160586
9.28649e-05
2.06225e-05
8.03106e-07
8.29779e-08
9.86542e-06
7.22138e-05
0.000170771
0.000220883
0.000242876
0.00027046
0.000310398
0.000301133
0.000300726
0.000309637
0.000305664
0.000304144
0.00030004
0.000292544
0.000292167
0.00029127
0.00029124
0.000306896
0.000294807
0.000299587
0.000317585
0.000344847
0.000460179
0.00098359
0.00307393
0.00418049
0.00391028
0.00462964
0.00334423
0.00134369
0.000529166
0.000343861
0.000323987
0.00029681
0.00029198
0.000289194
0.000286122
0.000291353
0.000294195
0.000272654
0.000278622
0.000292803
0.000282083
0.00027202
0.000295159
0.000281175
0.000285655
0.000269434
0.00023797
0.000210076
0.000168493
8.99463e-05
2.11039e-05
8.3308e-07
8.75418e-08
1.04652e-05
7.69315e-05
0.000174206
0.000225208
0.000250639
0.000269531
0.000297791
0.00032461
0.000306872
0.000306515
0.000316152
0.000308221
0.000315201
0.0002988
0.000294171
0.000289721
0.000317558
0.000331989
0.000296512
0.000297179
0.000304533
0.000330608
0.00043683
0.00084914
0.00249492
0.00367318
0.00357856
0.00416224
0.00302523
0.0012545
0.000512266
0.000356862
0.000322258
0.000304032
0.000291545
0.000290862
0.000305328
0.000292605
0.000289451
0.000279283
0.00028191
0.000304842
0.000304463
0.000278047
0.000290608
0.000278921
0.000270804
0.000259309
0.000237749
0.000216465
0.000173311
9.11669e-05
2.13553e-05
8.52493e-07
9.18371e-08
1.07005e-05
7.5977e-05
0.00019243
0.000237139
0.000262382
0.000279222
0.000302668
0.000331055
0.000336798
0.000315178
0.000338294
0.0003225
0.000312248
0.000304331
0.000300261
0.000310477
0.000319896
0.00032676
0.000294793
0.0002991
0.00030382
0.000332427
0.000416632
0.000755773
0.00204599
0.0031243
0.00310804
0.00353341
0.00265672
0.00117529
0.000490918
0.000339375
0.000319403
0.000306516
0.00029267
0.000293383
0.000293377
0.000289402
0.000284813
0.000293214
0.000287575
0.000300294
0.00029782
0.000294764
0.000293933
0.000278331
0.000265491
0.000251269
0.000235498
0.000219886
0.0001785
9.50634e-05
2.21193e-05
8.85627e-07
9.57232e-08
1.11561e-05
7.90779e-05
0.000199553
0.000276567
0.000283942
0.000297375
0.000309335
0.000329353
0.000330858
0.000344073
0.00032749
0.000317299
0.00031008
0.000308128
0.000303127
0.000300535
0.000310563
0.000315818
0.000294761
0.000314686
0.000305716
0.000322789
0.000401949
0.00068747
0.00171113
0.00261108
0.00257403
0.00287418
0.00228227
0.00110207
0.000512635
0.000350376
0.000317676
0.000299867
0.000292933
0.000294992
0.00031233
0.000297659
0.000287477
0.000297911
0.000296183
0.000317807
0.000301116
0.0002992
0.00029816
0.000284512
0.000278298
0.000255448
0.000236091
0.000220796
0.000186082
0.000102335
2.31398e-05
9.3108e-07
1.01019e-07
1.1896e-05
8.22787e-05
0.000200608
0.000300814
0.000305548
0.000320045
0.000315189
0.000335826
0.000335813
0.000335184
0.000349832
0.000313545
0.000326393
0.000310353
0.000317609
0.000301931
0.000305445
0.000309784
0.000295159
0.000303505
0.000318136
0.000319143
0.000391388
0.000639239
0.00146132
0.00216929
0.00209267
0.00229859
0.00193003
0.00102378
0.000500669
0.000344807
0.000309726
0.000297803
0.000296615
0.000305096
0.00030211
0.000292348
0.000294637
0.000316232
0.00030675
0.000320884
0.000322409
0.000303122
0.000317649
0.000290421
0.000282775
0.000255942
0.000239595
0.000230667
0.000193612
0.000105057
2.39985e-05
9.68497e-07
1.07395e-07
1.26563e-05
8.65553e-05
0.000208055
0.000291224
0.000307
0.000345252
0.000330149
0.000342865
0.000336746
0.000341034
0.000341256
0.000316387
0.000321586
0.000321288
0.000306629
0.000302355
0.000305355
0.000310538
0.00030988
0.000306156
0.000305781
0.000320296
0.000375523
0.000606878
0.00127198
0.00180815
0.00170048
0.00183715
0.00163968
0.000952511
0.000478411
0.000333822
0.000308202
0.000302153
0.000313538
0.000304699
0.000307012
0.000297319
0.000312033
0.000317103
0.000309811
0.000317176
0.000318207
0.000303203
0.000311595
0.000297655
0.00028438
0.000261791
0.000243901
0.000247177
0.000216555
0.0001092
2.56582e-05
1.02205e-06
1.13175e-07
1.34092e-05
9.24224e-05
0.000237027
0.000297984
0.000316932
0.000355461
0.000344224
0.000346557
0.000339414
0.000344758
0.000347723
0.000337655
0.000317117
0.000316117
0.000310783
0.000311146
0.000310859
0.000315678
0.000313226
0.000322823
0.00030473
0.000317894
0.000374851
0.000577739
0.00112657
0.00152289
0.00139756
0.00148985
0.00140462
0.000890256
0.000476207
0.00033439
0.000306082
0.000307398
0.000311707
0.000304742
0.000303406
0.000302535
0.000311476
0.000326121
0.000310008
0.000327179
0.000314507
0.000326268
0.000316607
0.000301062
0.000281449
0.000263611
0.000249955
0.000247912
0.000209242
0.0001115
2.56962e-05
1.04261e-06
1.16992e-07
1.38464e-05
0.000101375
0.000248722
0.000313901
0.000333701
0.000355903
0.000357641
0.000347807
0.000343808
0.000351216
0.000351716
0.000330396
0.000316005
0.000314013
0.000324652
0.000342419
0.000316351
0.000317621
0.000319486
0.000314588
0.000302693
0.000317272
0.000361756
0.000556996
0.00101334
0.0013023
0.00117182
0.00123422
0.00122051
0.000834571
0.000488773
0.000327503
0.00031306
0.000338066
0.000312131
0.000302421
0.000303515
0.000314302
0.000320556
0.000315657
0.000310067
0.000329082
0.000309311
0.000314977
0.000340182
0.000337876
0.000285467
0.000287861
0.000271326
0.00026751
0.000214346
0.000115039
2.64486e-05
1.07423e-06
1.19346e-07
1.41598e-05
0.000103079
0.000248817
0.000344798
0.00037249
0.000411758
0.000384755
0.000352632
0.000352319
0.000358429
0.000346849
0.000338403
0.000316809
0.000316744
0.000320394
0.000339611
0.000324129
0.000321532
0.000325733
0.00030913
0.00030765
0.000330898
0.000366747
0.000535907
0.00092268
0.00113289
0.00100559
0.00104907
0.00107795
0.000784733
0.000484533
0.000331347
0.000335778
0.00032963
0.000321188
0.000304641
0.000335638
0.000312591
0.000306588
0.000319129
0.00030891
0.000317349
0.000313041
0.000318294
0.000322422
0.000317793
0.000294463
0.00028592
0.000279139
0.000273639
0.000237307