/*--------------------------------*- C++ -*----------------------------------*\
  =========                 |
  \\      /  F ield         | OpenFOAM: The Open Source CFD Toolbox
   \\    /   O peration     | Website:  https://openfoam.org
    \\  /    A nd           | Version:  7
     \\/     M anipulation  |
\*---------------------------------------------------------------------------*/
FoamFile
{
    version     2.0;
    format      ascii;
    class       volScalarField;
    location    "30";
    object      nut;
}
// * * * * * * * * * * * * * * * * * * * * * * * * * * * * * * * * * * * * * //

dimensions      [0 2 -1 0 0 0 0];

internalField   nonuniform List<scalar> 
17475
(
3.12041e-05
0.000188849
0.000188081
0.000188027
0.000188026
0.000188026
0.000188026
0.000188026
0.000188025
0.000188025
0.000188025
0.000188025
0.000188025
0.000188025
0.000188025
0.000188025
0.000188025
0.000188025
0.000188025
0.000188025
0.000188026
0.000188026
0.000188025
0.000188026
0.000188024
0.000188028
0.000188027
0.000188027
0.000188028
0.000188028
0.000188027
0.000188027
0.000188027
0.000188027
0.000188027
0.000188027
0.000188027
0.000188027
0.000188028
0.000188029
0.00018803
0.000188032
0.000188034
0.000188035
0.000188036
0.000188037
0.000188038
0.000188039
0.00018804
0.000188041
0.000188042
0.000188043
0.000188054
0.000188285
0.000150675
9.21821e-07
0.000115389
0.000172097
0.000176592
0.000176755
0.00017676
0.000176758
0.000176755
0.000176754
0.000176752
0.000176751
0.00017675
0.00017675
0.000176749
0.000176749
0.000176748
0.000176748
0.000176748
0.000176747
0.000176747
0.000176746
0.000176746
0.000176749
0.000176743
0.000176752
0.000176755
0.000176761
0.00017676
0.000176761
0.00017676
0.00017676
0.00017676
0.00017676
0.00017676
0.00017676
0.00017676
0.00017676
0.00017676
0.000176757
0.000176757
0.000176757
0.000176756
0.000176757
0.000176757
0.000176759
0.00017676
0.000176761
0.000176763
0.000176766
0.000176769
0.000176768
0.000176705
0.000175367
0.000153947
1.68133e-05
1.20159e-07
5.92248e-05
0.00015115
0.000168233
0.000169911
0.00017002
0.000170024
0.000170019
0.000170013
0.000170005
0.000170001
0.000169998
0.000169996
0.000169993
0.000169991
0.000169989
0.000169987
0.000169985
0.000169984
0.000169981
0.000169979
0.000169981
0.000169981
0.000169986
0.000169987
0.000169988
0.000169994
0.000169997
0.000169997
0.000169996
0.000169995
0.000169995
0.000169997
0.000169999
0.000169999
0.000169999
0.000170001
0.000169999
0.000169997
0.000169996
0.000169996
0.000169992
0.000169989
0.00016999
0.000169994
0.000169996
0.000169998
0.000170003
0.000170009
0.000170014
0.000169976
0.000169343
0.000161173
0.000102854
3.04218e-06
3.86513e-08
3.04689e-05
0.000127854
0.000159105
0.000164778
0.000165355
0.000165415
0.000165414
0.000165399
0.000165384
0.000165377
0.00016537
0.000165364
0.000165356
0.000165352
0.000165347
0.000165341
0.000165337
0.000165333
0.000165326
0.000165323
0.000165323
0.000165329
0.00016533
0.000165332
0.000165333
0.000165335
0.000165339
0.00016534
0.000165336
0.000165333
0.000165334
0.00016534
0.000165346
0.000165347
0.000165348
0.000165352
0.000165349
0.000165347
0.000165349
0.000165352
0.000165345
0.000165342
0.000165349
0.00016536
0.000165368
0.000165373
0.000165381
0.000165387
0.000165378
0.000165153
0.000162512
0.000144075
6.41395e-05
1.07904e-06
1.75797e-08
1.70805e-05
0.000104961
0.000149004
0.000159923
0.000161723
0.000161948
0.000161969
0.00016195
0.000161933
0.000161927
0.000161917
0.000161907
0.00016189
0.000161884
0.000161878
0.000161868
0.000161857
0.00016185
0.000161843
0.000161835
0.000161837
0.000161836
0.000161831
0.000161843
0.000161846
0.00016184
0.000161838
0.000161833
0.000161823
0.000161823
0.000161829
0.000161844
0.000161854
0.000161856
0.000161864
0.000161867
0.000161859
0.000161862
0.000161869
0.000161874
0.000161871
0.000161875
0.000161887
0.000161906
0.000161924
0.000161933
0.000161942
0.000161936
0.000161857
0.000161063
0.000154849
0.000126132
4.19408e-05
5.50219e-07
9.63952e-09
1.05334e-05
8.50638e-05
0.000138737
0.000154757
0.000158572
0.00015916
0.000159247
0.000159227
0.000159202
0.000159204
0.000159199
0.00015919
0.000159166
0.000159157
0.000159143
0.000159137
0.000159109
0.000159099
0.000159095
0.000159088
0.00015908
0.000159063
0.000159053
0.000159081
0.000159085
0.000159062
0.000159031
0.00015901
0.000159009
0.000159026
0.000159045
0.000159071
0.000159081
0.000159087
0.000159116
0.000159116
0.000159101
0.000159111
0.000159123
0.000159126
0.000159133
0.00015914
0.000159153
0.000159178
0.000159217
0.000159225
0.000159229
0.000159193
0.000158929
0.000157003
0.000146699
0.000109091
2.91208e-05
3.33113e-07
5.9863e-09
7.05743e-06
6.90018e-05
0.000128516
0.000149336
0.000155606
0.000156871
0.0001571
0.000157059
0.000157
0.000157024
0.000157035
0.000157013
0.000156995
0.000156991
0.000156957
0.000156967
0.000156936
0.000156896
0.000156859
0.000156849
0.000156852
0.000156804
0.000156805
0.000156823
0.000156813
0.000156764
0.000156693
0.000156667
0.000156709
0.000156751
0.00015679
0.000156824
0.000156835
0.000156831
0.000156908
0.000156934
0.000156897
0.0001569
0.000156911
0.000156919
0.000156913
0.000156893
0.000156905
0.000156938
0.000157045
0.000157063
0.000157015
0.000156915
0.000156305
0.000152712
0.000138587
9.40859e-05
2.13226e-05
2.23075e-07
4.0659e-09
5.05613e-06
5.64816e-05
0.000118683
0.000144219
0.000152989
0.000155261
0.000155741
0.000155694
0.000155645
0.000155705
0.000155731
0.000155623
0.000155544
0.000155584
0.00015552
0.000155541
0.000155477
0.000155354
0.000155213
0.00015518
0.000155231
0.000155134
0.000155099
0.000155048
0.000155026
0.000154932
0.000154809
0.000154818
0.000154971
0.00015502
0.000155026
0.000155075
0.000155113
0.000155109
0.000155231
0.00015528
0.000155225
0.000155227
0.000155236
0.000155258
0.000155225
0.000155188
0.000155179
0.000155236
0.000155445
0.000155472
0.000155346
0.000155123
0.000153941
0.000148468
0.000130858
8.14446e-05
1.62279e-05
1.57536e-07
2.94709e-09
3.80372e-06
4.68106e-05
0.000109505
0.000139845
0.000151132
0.000154772
0.000155594
0.000155606
0.000155554
0.000155678
0.000155821
0.000155597
0.000155399
0.000155562
0.000155417
0.000155306
0.00015504
0.000154703
0.000154404
0.000154318
0.00015443
0.000154327
0.000154193
0.00015413
0.000154053
0.000153735
0.00015348
0.000153539
0.000153972
0.000154125
0.000153981
0.000154052
0.000154184
0.000154245
0.000154397
0.000154395
0.000154299
0.000154284
0.000154347
0.000154369
0.000154172
0.000154099
0.000154113
0.000154326
0.000154604
0.000154565
0.000154367
0.000153927
0.000151908
0.000144697
0.000123707
7.0878e-05
1.28077e-05
1.18845e-07
2.24148e-09
2.97185e-06
3.93283e-05
0.00010111
0.000136185
0.000149843
0.000155386
0.00015686
0.000156496
0.000156212
0.000156682
0.000157009
0.000156757
0.00015635
0.00015656
0.000156262
0.000155865
0.000155739
0.000155075
0.000154495
0.00015435
0.00015438
0.000154193
0.00015416
0.00015425
0.000153969
0.000153431
0.000153083
0.000153184
0.000153788
0.000154039
0.000153916
0.000153957
0.000154089
0.00015409
0.000154354
0.000154503
0.000154307
0.000153992
0.000154133
0.000154503
0.000154074
0.000153721
0.000153639
0.000154018
0.000154818
0.000154953
0.000154142
0.000153245
0.000150509
0.000141739
0.000117446
6.24723e-05
1.04451e-05
9.39669e-08
1.76764e-09
2.39156e-06
3.35182e-05
9.35149e-05
0.000132891
0.000148559
0.000155793
0.000157954
0.000157612
0.000157159
0.000157658
0.000158397
0.000158555
0.000157972
0.000158035
0.00015802
0.000157553
0.00015736
0.000156394
0.000155527
0.000155194
0.000155197
0.000155058
0.000154699
0.000154896
0.000155146
0.000154429
0.000153993
0.000154051
0.000154488
0.000154821
0.000154663
0.000154645
0.000154902
0.000154714
0.000155036
0.000154828
0.000154792
0.000154396
0.000154564
0.000154752
0.000154459
0.000154165
0.000154181
0.00015516
0.000156077
0.000156143
0.000155052
0.000153423
0.000149447
0.000139713
0.000112101
5.56264e-05
8.72975e-06
7.68905e-08
1.43591e-09
1.97296e-06
2.89822e-05
8.65581e-05
0.000129594
0.000147712
0.000156057
0.000158424
0.000158177
0.00015771
0.000158832
0.000160195
0.00016193
0.000159469
0.000159457
0.000160238
0.000157894
0.000158694
0.000157421
0.000156648
0.000156798
0.000156283
0.000156345
0.000157335
0.000157622
0.000157041
0.000155275
0.000156678
0.000157027
0.000155136
0.000154849
0.00015585
0.000154933
0.000156365
0.000156462
0.000156554
0.000156907
0.000156898
0.000155604
0.000155434
0.000155721
0.000155782
0.000154989
0.00015494
0.000156416
0.000156976
0.000158304
0.000155804
0.000154145
0.00014891
0.000137264
0.000107066
4.99828e-05
7.45461e-06
6.47647e-08
1.19703e-09
1.66679e-06
2.54091e-05
8.02483e-05
0.000125384
0.000148377
0.000156453
0.000160583
0.000159517
0.000155818
0.000157612
0.000163517
0.000163416
0.000162542
0.000162292
0.000161035
0.000159797
0.000159792
0.000159393
0.00015864
0.000158492
0.000157999
0.000156884
0.00015739
0.000159596
0.000158643
0.000157681
0.000157982
0.000158456
0.000157735
0.000156982
0.000158173
0.000159182
0.000158958
0.000158663
0.00015877
0.000159602
0.000159164
0.000158047
0.000156873
0.000156886
0.000157448
0.000157919
0.000157776
0.000158475
0.000161124
0.000161588
0.000159174
0.000156148
0.000151548
0.0001379
0.000101885
4.51548e-05
6.48677e-06
5.597e-08
1.01939e-09
1.43414e-06
2.25694e-05
7.44236e-05
0.000122128
0.000142703
0.000150481
0.000154677
0.000153725
0.000154965
0.000156856
0.000158302
0.000158213
0.000157883
0.000157243
0.000155486
0.000154479
0.000153043
0.000151836
0.000150666
0.000149998
0.00014938
0.000149343
0.000149956
0.000151413
0.000151727
0.000150986
0.000149989
0.000149896
0.00014984
0.00015005
0.00015043
0.0001511
0.000150942
0.000151087
0.000151123
0.000151645
0.000151878
0.000152499
0.000152434
0.00015268
0.000153787
0.000154567
0.000154276
0.000154787
0.000156913
0.000155482
0.000153762
0.000151007
0.000145414
0.000131983
9.68052e-05
4.10415e-05
5.70894e-06
4.85897e-08
8.85001e-10
1.25508e-06
2.03144e-05
6.93224e-05
0.000112285
0.000133017
0.000141912
0.000145101
0.000145184
0.000145206
0.000146886
0.000148064
0.000147929
0.0001472
0.00014632
0.000145312
0.000144153
0.000142748
0.000141432
0.000140113
0.000139043
0.00013824
0.00013804
0.000138432
0.000139531
0.000140703
0.000140354
0.000139859
0.000139656
0.000139155
0.000138734
0.000138314
0.000138081
0.000139298
0.000140146
0.00014057
0.000140979
0.000141725
0.000142962
0.000143225
0.000143938
0.000145213
0.000145948
0.000146433
0.000146829
0.000147165
0.00014614
0.000144491
0.000141995
0.00013621
0.000122869
8.96195e-05
3.75232e-05
5.1076e-06
4.27831e-08
7.8154e-10
1.11778e-06
1.84153e-05
6.3614e-05
0.000104541
0.000124682
0.000132763
0.000136037
0.000136399
0.000136584
0.000138008
0.000138807
0.000138238
0.000137262
0.000136505
0.00013573
0.000134507
0.000132897
0.000131483
0.00012982
0.000128
0.000126969
0.000126242
0.000125828
0.000126921
0.000130748
0.000111805
0.000104942
0.00010686
0.000118822
0.000127724
0.000125498
0.000125685
0.000126567
0.000128577
0.000130053
0.000130779
0.000131856
0.000133454
0.000133873
0.0001345
0.000135783
0.000136694
0.000137255
0.000137758
0.000138135
0.000137123
0.000135328
0.000132878
0.000127839
0.000114987
8.30277e-05
3.48771e-05
4.61774e-06
3.81812e-08
6.88187e-10
1.0008e-06
1.68584e-05
5.85341e-05
9.75565e-05
0.000116722
0.000124551
0.000127672
0.000128326
0.000128369
0.000129336
0.000129683
0.000128704
0.000127607
0.000126859
0.00012636
0.000125248
0.000123135
0.000121645
0.000119266
0.000116267
0.000114858
0.000112546
0.000113499
0.000100259
7.0634e-05
4.57828e-05
2.40753e-05
2.42542e-05
5.91265e-05
8.32845e-05
0.000117862
0.000112134
0.000112467
0.000115777
0.000118367
0.000119897
0.000121809
0.000123955
0.000124734
0.000125505
0.000126746
0.0001274
0.000128151
0.000128754
0.000129351
0.000128474
0.00012664
0.000124551
0.000119956
0.000107792
7.73553e-05
3.227e-05
4.22125e-06
3.45162e-08
5.05441e-10
8.60328e-07
1.50705e-05
5.37388e-05
9.04989e-05
0.000109338
0.000117229
0.000120029
0.000120752
0.000120631
0.000120573
0.000120987
0.000119521
0.000118339
0.000117839
0.000117286
0.000115673
0.000113588
0.000111327
0.000107928
0.000104418
0.000101339
0.000103708
9.42968e-05
3.29412e-05
1.69957e-06
1.43677e-09
1.39098e-08
1.25482e-05
4.1576e-05
0.000103619
0.000100548
0.000102094
0.000105455
0.000109331
0.000112214
0.000114284
0.00011583
0.000116764
0.000118102
0.000118616
0.000119332
0.00012026
0.00012081
0.000120188
0.000118609
0.000116933
0.000112558
0.000100876
7.20823e-05
2.98724e-05
3.86264e-06
3.1354e-08
1.23473e-10
5.15636e-07
1.24588e-05
4.79248e-05
8.2554e-05
0.000101238
0.000109209
0.000111701
0.000112344
0.000111678
0.000109969
0.000110634
0.000109326
0.000108212
0.000107615
0.000106878
0.000104958
0.000103077
9.95932e-05
9.47465e-05
9.20033e-05
9.29734e-05
8.23852e-05
2.40432e-05
1.36169e-06
2.08174e-10
5.75756e-06
5.92014e-05
8.80599e-05
9.24122e-05
9.22349e-05
9.74437e-05
0.000101946
0.000104216
0.000106011
0.000107275
0.000108773
0.000109433
0.000109793
0.00011081
0.000111091
0.000110844
0.0001099
0.000108514
0.000104314
9.29124e-05
6.65496e-05
2.78518e-05
3.49607e-06
2.64317e-08
1.69821e-10
6.21064e-07
1.17418e-05
4.29707e-05
7.27716e-05
8.82666e-05
9.505e-05
9.61443e-05
9.63698e-05
9.61878e-05
9.5143e-05
9.4417e-05
9.35377e-05
9.25166e-05
9.09288e-05
8.99045e-05
8.88968e-05
8.78715e-05
8.46238e-05
8.06111e-05
8.31118e-05
7.6476e-05
5.21144e-05
7.33192e-06
1.1676e-07
1.1757e-06
2.62044e-05
7.26939e-05
8.76641e-05
8.0963e-05
8.20172e-05
8.5994e-05
8.73486e-05
8.84319e-05
9.07669e-05
9.2731e-05
9.35881e-05
9.32202e-05
9.41996e-05
9.51893e-05
9.58488e-05
9.57532e-05
9.48278e-05
9.12115e-05
8.08277e-05
5.84768e-05
2.50555e-05
3.43045e-06
3.00195e-08
3.70512e-10
6.35453e-07
1.15596e-05
4.01104e-05
6.6911e-05
8.13947e-05
8.74255e-05
8.90077e-05
8.92453e-05
8.8586e-05
8.83571e-05
8.70573e-05
8.57028e-05
8.503e-05
8.37838e-05
8.18318e-05
8.16156e-05
8.10976e-05
7.71783e-05
7.51772e-05
7.70093e-05
6.84888e-05
3.51759e-05
4.28276e-06
1.55003e-07
4.47836e-10
5.19338e-09
9.64004e-07
1.61281e-05
5.6596e-05
7.97078e-05
7.70663e-05
7.43055e-05
7.88412e-05
7.9644e-05
8.07551e-05
8.18687e-05
8.40994e-05
8.55305e-05
8.58846e-05
8.65825e-05
8.79854e-05
8.80907e-05
8.836e-05
8.71337e-05
8.34982e-05
7.39161e-05
5.33427e-05
2.28152e-05
3.09408e-06
2.5211e-08
4.14066e-10
6.08492e-07
1.07875e-05
3.7102e-05
6.01104e-05
7.49243e-05
7.99869e-05
8.27329e-05
8.2456e-05
8.16381e-05
8.30718e-05
7.97083e-05
7.81166e-05
7.97521e-05
7.65895e-05
7.69668e-05
7.55306e-05
7.50129e-05
7.27548e-05
7.45249e-05
7.35668e-05
6.10928e-05
2.85607e-05
3.91128e-06
4.87674e-07
6.7897e-07
8.33858e-07
1.04647e-06
9.99332e-07
1.2519e-06
5.02712e-07
1.35581e-06
1.30051e-05
5.04657e-05
7.56418e-05
7.42406e-05
7.13648e-05
7.19873e-05
7.23484e-05
7.58545e-05
7.62222e-05
7.81412e-05
7.88822e-05
7.92712e-05
7.91547e-05
8.23343e-05
8.09464e-05
8.06223e-05
8.16844e-05
7.76785e-05
6.8626e-05
4.89722e-05
2.10685e-05
2.78893e-06
2.23986e-08
3.9195e-10
5.70795e-07
1.0028e-05
3.44493e-05
5.54177e-05
6.9217e-05
7.47551e-05
7.58516e-05
7.74021e-05
7.8228e-05
7.83514e-05
7.66552e-05
7.62228e-05
7.50914e-05
7.43359e-05
7.11545e-05
7.13355e-05
7.12955e-05
6.96281e-05
7.48796e-05
7.15663e-05
6.13031e-05
2.54901e-05
4.50887e-06
1.93188e-06
1.22425e-05
3.75127e-05
5.72978e-05
5.33723e-05
2.84879e-05
5.51653e-06
2.35197e-06
1.30992e-05
4.61592e-05
7.17691e-05
7.64991e-05
6.98174e-05
7.07001e-05
6.98092e-05
7.24675e-05
7.1986e-05
7.33342e-05
7.31029e-05
7.47302e-05
7.4504e-05
7.76136e-05
7.62548e-05
7.67611e-05
7.75632e-05
7.2543e-05
6.37027e-05
4.54349e-05
1.94824e-05
2.54722e-06
2.03018e-08
3.64975e-10
5.31258e-07
9.06487e-06
3.16181e-05
5.0246e-05
6.6009e-05
7.06149e-05
7.28406e-05
7.16011e-05
7.53334e-05
7.57075e-05
7.69847e-05
7.2712e-05
7.20947e-05
7.12798e-05
6.76649e-05
6.78469e-05
6.84594e-05
6.75697e-05
7.16648e-05
7.1844e-05
5.77946e-05
2.44689e-05
6.17815e-06
5.50937e-06
2.76581e-05
6.81878e-05
0.000102134
0.000100501
6.31318e-05
1.99695e-05
5.13415e-06
1.47435e-05
4.37147e-05
6.95559e-05
7.57244e-05
7.11029e-05
6.78052e-05
6.77342e-05
6.84252e-05
6.86497e-05
7.02358e-05
7.07148e-05
7.01883e-05
7.1762e-05
7.38994e-05
7.20526e-05
7.31485e-05
7.34526e-05
6.75294e-05
5.91262e-05
4.23222e-05
1.81315e-05
2.33447e-06
1.85447e-08
3.31805e-10
4.76624e-07
8.39947e-06
2.94981e-05
4.69683e-05
6.25058e-05
6.69749e-05
6.77334e-05
7.02383e-05
7.15893e-05
7.07155e-05
7.39521e-05
7.23647e-05
6.80454e-05
6.75403e-05
6.79867e-05
6.45243e-05
6.48358e-05
6.75267e-05
7.07735e-05
6.88877e-05
5.86254e-05
2.5941e-05
9.63847e-06
1.05512e-05
3.59336e-05
7.98541e-05
0.000130194
0.000133095
8.97157e-05
4.06794e-05
1.17166e-05
1.73315e-05
4.23687e-05
6.3777e-05
7.10115e-05
6.86752e-05
6.74316e-05
6.60829e-05
6.41339e-05
6.41455e-05
6.60412e-05
6.76789e-05
6.70421e-05
7.10204e-05
6.90352e-05
7.02487e-05
6.82776e-05
6.66189e-05
6.32036e-05
5.50822e-05
3.95025e-05
1.67225e-05
2.13622e-06
1.69556e-08
3.19141e-10
4.62606e-07
8.21296e-06
2.76892e-05
4.51683e-05
5.74091e-05
6.16427e-05
6.45242e-05
6.54461e-05
6.70737e-05
6.7712e-05
6.91726e-05
7.18981e-05
6.80377e-05
6.66327e-05
6.69717e-05
6.42021e-05
6.34298e-05
6.96174e-05
7.38008e-05
6.90681e-05
5.62755e-05
2.97748e-05
1.60252e-05
1.83323e-05
4.62414e-05
9.98551e-05
0.000168912
0.0001704
0.000116373
6.03594e-05
2.37484e-05
2.41182e-05
4.1928e-05
6.34174e-05
7.35524e-05
6.68736e-05
6.36988e-05
6.36761e-05
6.23906e-05
6.45197e-05
6.33401e-05
6.31288e-05
6.50999e-05
6.81642e-05
6.78865e-05
6.61722e-05
6.65082e-05
6.39502e-05
6.07624e-05
5.12542e-05
3.57343e-05
1.53049e-05
1.94732e-06
1.52535e-08
3.05763e-10
4.39053e-07
7.77991e-06
2.60305e-05
4.48185e-05
5.36108e-05
5.87274e-05
6.26279e-05
6.43118e-05
6.62789e-05
6.88043e-05
6.72005e-05
6.96094e-05
6.76944e-05
6.47345e-05
6.19692e-05
6.34096e-05
6.21527e-05
6.91952e-05
6.9573e-05
6.64411e-05
5.22691e-05
3.75404e-05
2.74245e-05
3.28116e-05
6.01985e-05
0.000127759
0.000222097
0.000215227
0.000138151
7.79359e-05
4.26807e-05
3.63569e-05
4.55615e-05
6.12486e-05
6.89721e-05
6.64707e-05
6.19724e-05
6.12192e-05
6.0658e-05
6.07017e-05
5.95308e-05
6.39164e-05
6.119e-05
6.32444e-05
6.60827e-05
6.30678e-05
6.15904e-05
6.0321e-05
5.6316e-05
4.6601e-05
3.38292e-05
1.40232e-05
1.76765e-06
1.38294e-08
2.95044e-10
4.19258e-07
7.44175e-06
2.50535e-05
4.1239e-05
4.90438e-05
5.6058e-05
6.22333e-05
6.82931e-05
6.92209e-05
6.35718e-05
6.67868e-05
6.54127e-05
6.58696e-05
6.3624e-05
6.51019e-05
5.82981e-05
6.60819e-05
6.49652e-05
6.78664e-05
6.55249e-05
5.23554e-05
4.76217e-05
4.61205e-05
5.8147e-05
8.58005e-05
0.00017566
0.000300631
0.000269115
0.000163834
0.000104194
6.92896e-05
5.45341e-05
5.46151e-05
6.35401e-05
6.57279e-05
6.55069e-05
6.12439e-05
5.73129e-05
6.00236e-05
5.84319e-05
5.79407e-05
6.29129e-05
5.99263e-05
6.0662e-05
6.09761e-05
6.20325e-05
5.94583e-05
5.63467e-05
5.32273e-05
4.37985e-05
3.08989e-05
1.32767e-05
1.70566e-06
1.30386e-08
2.93115e-10
4.16543e-07
7.24135e-06
2.42539e-05
4.04419e-05
5.59154e-05
5.70359e-05
6.27672e-05
6.65883e-05
6.44046e-05
6.48162e-05
6.79723e-05
6.36272e-05
6.55364e-05
6.91803e-05
6.85074e-05
6.18481e-05
6.20701e-05
6.81957e-05
6.68617e-05
6.73492e-05
5.42892e-05
5.90939e-05
7.31237e-05
0.000101339
0.000140681
0.000259015
0.000404674
0.00033605
0.000207157
0.000143355
0.000102414
7.36117e-05
5.95728e-05
6.27906e-05
7.24425e-05
6.71935e-05
6.37248e-05
6.24748e-05
6.12955e-05
5.72236e-05
5.93545e-05
6.10131e-05
5.96999e-05
6.21207e-05
6.23475e-05
6.25448e-05
5.94778e-05
5.4026e-05
4.9789e-05
4.17562e-05
2.94837e-05
1.30295e-05
1.72894e-06
1.28678e-08
2.95351e-10
4.19926e-07
7.32559e-06
2.49238e-05
4.03721e-05
5.48661e-05
6.05546e-05
6.37668e-05
6.52808e-05
7.18409e-05
6.65662e-05
6.78202e-05
6.52433e-05
6.44747e-05
6.71849e-05
6.78258e-05
6.46052e-05
6.37938e-05
6.66818e-05
7.44955e-05
6.80499e-05
5.94191e-05
7.11317e-05
0.000106901
0.000171642
0.000245382
0.000397914
0.000532363
0.000415794
0.000276824
0.000201575
0.000141614
8.81266e-05
6.20985e-05
6.54533e-05
6.88922e-05
6.81676e-05
6.3923e-05
6.27972e-05
6.33344e-05
6.30832e-05
6.29252e-05
6.48803e-05
6.73491e-05
6.58007e-05
6.41502e-05
6.12925e-05
6.04612e-05
5.60085e-05
5.25196e-05
4.56143e-05
3.01884e-05
1.35573e-05
1.65264e-06
1.23708e-08
2.94038e-10
4.13142e-07
7.32557e-06
2.76613e-05
4.26609e-05
5.55436e-05
6.27506e-05
7.04419e-05
6.92469e-05
7.2575e-05
7.30193e-05
7.15925e-05
7.36628e-05
6.93961e-05
6.95776e-05
6.513e-05
6.72178e-05
6.46089e-05
6.75077e-05
7.17179e-05
6.83612e-05
6.54284e-05
8.38381e-05
0.000143067
0.000274077
0.000421622
0.00058883
0.000676085
0.000519698
0.000376163
0.000277547
0.000177879
9.71037e-05
6.67592e-05
7.14232e-05
7.4701e-05
6.75067e-05
6.35475e-05
6.65049e-05
6.66303e-05
6.97214e-05
6.69395e-05
6.97249e-05
6.84848e-05
7.62907e-05
6.52087e-05
6.63043e-05
6.28699e-05
5.91802e-05
5.31313e-05
4.50014e-05
3.38825e-05
1.32928e-05
1.59524e-06
1.18328e-08
2.87768e-10
4.06464e-07
7.4453e-06
2.77647e-05
4.46606e-05
5.64223e-05
6.37208e-05
6.89938e-05
7.09988e-05
7.43566e-05
7.45776e-05
7.41864e-05
7.55407e-05
7.31363e-05
7.18468e-05
6.6484e-05
6.70491e-05
6.69663e-05
6.84956e-05
7.67574e-05
7.12239e-05
7.21162e-05
8.71438e-05
0.000172323
0.000404855
0.000671238
0.000827849
0.000827466
0.000662764
0.000511149
0.000361467
0.000206197
0.000104019
7.12866e-05
7.74833e-05
7.53103e-05
7.16815e-05
6.95638e-05
6.91859e-05
6.84562e-05
6.8265e-05
6.83261e-05
7.13366e-05
7.89723e-05
7.3912e-05
6.90583e-05
6.65338e-05
6.52122e-05
6.00444e-05
5.4023e-05
4.53434e-05
3.31085e-05
1.31849e-05
1.55237e-06
1.15103e-08
2.89084e-10
4.08507e-07
7.57808e-06
2.74673e-05
4.59788e-05
5.86584e-05
6.44569e-05
7.35828e-05
7.6082e-05
7.78037e-05
7.56399e-05
8.02406e-05
8.03764e-05
7.79985e-05
7.64956e-05
6.95483e-05
6.78492e-05
6.91049e-05
7.03999e-05
7.3888e-05
8.03547e-05
7.39848e-05
9.18125e-05
0.00017312
0.0004784
0.000931575
0.00105442
0.00098213
0.000836744
0.000668947
0.000423951
0.000204979
0.000102742
8.29961e-05
7.63567e-05
7.69951e-05
7.315e-05
7.39051e-05
7.05972e-05
7.59065e-05
7.26375e-05
7.50471e-05
7.48533e-05
7.61891e-05
7.65779e-05
7.10911e-05
6.90736e-05
6.57575e-05
6.15486e-05
5.45803e-05
4.91405e-05
3.29219e-05
1.31826e-05
1.55552e-06
1.12667e-08
2.89044e-10
4.09833e-07
7.72318e-06
2.85492e-05
4.94184e-05
6.03967e-05
6.5542e-05
7.29092e-05
7.82212e-05
8.01498e-05
8.37092e-05
8.08077e-05
7.95789e-05
7.99876e-05
7.81342e-05
7.544e-05
7.34235e-05
7.40033e-05
7.29658e-05
7.51784e-05
7.68957e-05
7.6247e-05
9.2728e-05
0.000168068
0.000492836
0.00111589
0.00122566
0.00112778
0.0010367
0.000813435
0.000442687
0.000184757
9.89453e-05
7.9534e-05
7.75281e-05
7.70835e-05
7.4764e-05
7.62423e-05
7.379e-05
7.97261e-05
7.49067e-05
7.7578e-05
7.4059e-05
7.86446e-05
7.63799e-05
7.40323e-05
7.48608e-05
6.72558e-05
6.50275e-05
5.62804e-05
4.92317e-05
3.32277e-05
1.31641e-05
1.55029e-06
1.11712e-08
2.89805e-10
4.13239e-07
7.86666e-06
2.90972e-05
5.04889e-05
6.58897e-05
6.80455e-05
7.58554e-05
7.92403e-05
8.04876e-05
8.07229e-05
8.03849e-05
8.0172e-05
8.11571e-05
8.02422e-05
7.81545e-05
7.39347e-05
7.47313e-05
7.80945e-05
8.21384e-05
8.25134e-05
8.38296e-05
9.67869e-05
0.000159127
0.00043918
0.00119158
0.00133279
0.00124027
0.0012384
0.000919779
0.000439174
0.000174136
9.81199e-05
8.07402e-05
8.31375e-05
7.79661e-05
7.6148e-05
7.65915e-05
8.06586e-05
8.1213e-05
7.64077e-05
7.66801e-05
7.36932e-05
7.978e-05
7.7554e-05
7.38366e-05
7.33095e-05
7.02087e-05
6.73055e-05
5.85197e-05
4.96769e-05
3.43063e-05
1.34489e-05
1.57543e-06
1.12185e-08
2.98952e-10
4.36737e-07
8.45492e-06
3.46008e-05
5.47976e-05
6.44001e-05
7.14469e-05
8.35535e-05
8.14879e-05
8.25377e-05
8.15236e-05
8.2083e-05
8.95442e-05
8.20505e-05
8.09803e-05
8.26518e-05
8.30785e-05
7.64719e-05
8.00295e-05
8.40258e-05
8.10571e-05
8.27606e-05
9.42354e-05
0.000146266
0.000387801
0.00113938
0.00137127
0.00131922
0.00140555
0.000965912
0.000418425
0.000165025
9.64241e-05
8.30895e-05
8.45561e-05
7.95918e-05
7.95497e-05
7.85014e-05
7.92883e-05
7.7617e-05
7.58539e-05
7.59137e-05
7.59756e-05
7.75791e-05
7.76047e-05
7.53354e-05
8.04254e-05
7.29649e-05
7.38148e-05
6.56959e-05
5.19345e-05
3.62688e-05
1.40811e-05
1.57752e-06
1.10869e-08
3.08279e-10
4.47355e-07
8.811e-06
3.3919e-05
5.66043e-05
6.5984e-05
7.96339e-05
8.17627e-05
8.63746e-05
8.60912e-05
8.8865e-05
8.66952e-05
9.17656e-05
8.73465e-05
8.48756e-05
8.33582e-05
8.4684e-05
8.22052e-05
9.07376e-05
8.35503e-05
8.57201e-05
8.44623e-05
9.5667e-05
0.000137781
0.00032591
0.00102762
0.00134242
0.00134042
0.00145884
0.000991228
0.000404208
0.000158431
9.71974e-05
8.93964e-05
8.4061e-05
8.13457e-05
8.13675e-05
8.13432e-05
8.18169e-05
8.32617e-05
7.65447e-05
7.86024e-05
8.16374e-05
7.85972e-05
7.81288e-05
8.41938e-05
8.28525e-05
8.04118e-05
7.85869e-05
6.62551e-05
5.23123e-05
3.9437e-05
1.62408e-05
1.67773e-06
1.1303e-08
3.28136e-10
4.8715e-07
1.007e-05
3.82773e-05
5.9353e-05
6.86324e-05
7.77755e-05
9.01728e-05
8.78986e-05
8.79452e-05
9.03723e-05
8.88656e-05
8.82499e-05
8.70522e-05
8.49539e-05
8.49062e-05
8.45363e-05
8.43012e-05
8.85161e-05
8.47235e-05
8.59027e-05
9.10263e-05
9.90536e-05
0.000132187
0.000278996
0.000862184
0.00124701
0.00129805
0.00143462
0.000957286
0.000382576
0.000151605
9.8664e-05
9.31162e-05
8.54016e-05
8.4122e-05
8.34833e-05
8.26697e-05
8.42646e-05
8.5221e-05
7.90384e-05
8.06953e-05
8.46271e-05
8.1358e-05
7.84367e-05
8.52822e-05
8.13999e-05
8.25314e-05
7.71395e-05
6.71305e-05
5.77612e-05
4.15829e-05
1.58091e-05
1.72202e-06
1.17081e-08
3.46294e-10
5.18133e-07
1.07887e-05
3.92776e-05
6.08686e-05
7.12435e-05
7.79331e-05
8.6951e-05
9.51854e-05
9.01234e-05
8.99061e-05
9.24809e-05
9.00205e-05
9.20138e-05
8.73113e-05
8.60651e-05
8.46792e-05
9.25933e-05
9.65295e-05
8.59909e-05
8.60845e-05
8.84044e-05
9.63256e-05
0.000127255
0.000245263
0.000716668
0.00111996
0.0011964
0.00131428
0.000888029
0.000365179
0.000149419
0.0001037
9.35028e-05
8.82187e-05
8.46252e-05
8.45418e-05
8.88352e-05
8.52196e-05
8.44211e-05
8.14796e-05
8.20885e-05
8.84943e-05
8.81682e-05
8.04803e-05
8.42973e-05
8.11117e-05
7.86257e-05
7.45976e-05
6.73705e-05
5.97811e-05
4.29724e-05
1.61085e-05
1.74774e-06
1.19676e-08
3.63378e-10
5.31024e-07
1.07285e-05
4.36232e-05
6.4422e-05
7.49735e-05
8.11706e-05
8.88847e-05
9.76052e-05
9.93884e-05
9.29264e-05
9.95829e-05
9.48232e-05
9.16906e-05
8.94058e-05
8.83252e-05
9.12454e-05
9.38025e-05
9.56385e-05
8.61554e-05
8.74176e-05
8.90978e-05
9.78666e-05
0.000122761
0.000221483
0.00059871
0.000967235
0.00104273
0.00112969
0.000794205
0.000347657
0.00014499
9.96476e-05
9.34898e-05
8.96242e-05
8.55133e-05
8.57682e-05
8.5831e-05
8.47623e-05
8.35471e-05
8.60363e-05
8.41637e-05
8.75503e-05
8.66149e-05
8.56865e-05
8.56263e-05
8.12772e-05
7.74075e-05
7.25984e-05
6.70167e-05
6.09773e-05
4.44709e-05
1.68962e-05
1.81842e-06
1.24606e-08
3.78825e-10
5.54852e-07
1.12075e-05
4.54382e-05
7.5417e-05
8.1447e-05
8.68374e-05
9.13468e-05
9.76552e-05
9.81051e-05
0.000101908
9.69252e-05
9.38698e-05
9.15938e-05
9.10057e-05
8.96233e-05
8.87722e-05
9.15717e-05
9.304e-05
8.67862e-05
9.2701e-05
9.03279e-05
9.57365e-05
0.000119535
0.0002039
0.000508677
0.000818017
0.000863992
0.000925639
0.000691839
0.00032994
0.000152872
0.000103777
9.37052e-05
8.8228e-05
8.60885e-05
8.67232e-05
9.1834e-05
8.75809e-05
8.47162e-05
8.78387e-05
8.70991e-05
9.30728e-05
8.79842e-05
8.73972e-05
8.7232e-05
8.3402e-05
8.14295e-05
7.40909e-05
6.74634e-05
6.14886e-05
4.65865e-05
1.82997e-05
1.91199e-06
1.31584e-08
3.99805e-10
5.92907e-07
1.17174e-05
4.58394e-05
8.22129e-05
8.78326e-05
9.37551e-05
9.35078e-05
0.000100092
9.99989e-05
9.96153e-05
0.000103939
9.32431e-05
9.70172e-05
9.22315e-05
9.44373e-05
8.96665e-05
9.05903e-05
9.18648e-05
8.75077e-05
8.9997e-05
9.44643e-05
9.50854e-05
0.000117252
0.000191618
0.00044022
0.000685528
0.000701324
0.00074352
0.000591201
0.000309291
0.000150415
0.000102845
9.19311e-05
8.80314e-05
8.7582e-05
9.01552e-05
8.92387e-05
8.63443e-05
8.71375e-05
9.36104e-05
9.06016e-05
9.44099e-05
9.46823e-05
8.9004e-05
9.33487e-05
8.54446e-05
8.30011e-05
7.44841e-05
6.87354e-05
6.45204e-05
4.87167e-05
1.89067e-05
1.99303e-06
1.3748e-08
4.25119e-10
6.3194e-07
1.23784e-05
4.76815e-05
7.9694e-05
8.8344e-05
0.000101379
9.83451e-05
0.000102675
0.000100662
0.000101624
0.000101667
9.45128e-05
9.62314e-05
9.61767e-05
9.17476e-05
9.02877e-05
9.10626e-05
9.26167e-05
9.23923e-05
9.12362e-05
9.1078e-05
9.56858e-05
0.000113132
0.00018356
0.000387419
0.000574723
0.000568095
0.000595363
0.00050621
0.000289557
0.000144428
0.000100057
9.19208e-05
8.96423e-05
9.29205e-05
9.04307e-05
9.10498e-05
8.80861e-05
9.25482e-05
9.41757e-05
9.18625e-05
9.37398e-05
9.39291e-05
8.95044e-05
9.19866e-05
8.78618e-05
8.37253e-05
7.64166e-05
7.02343e-05
6.94464e-05
5.47618e-05
1.97657e-05
2.14046e-06
1.45691e-08
4.48138e-10
6.70589e-07
1.32672e-05
5.44704e-05
8.16408e-05
9.1304e-05
0.000104637
0.000102964
0.000104285
0.000101891
0.000103058
0.000103902
0.000101332
9.55568e-05
9.53585e-05
9.35763e-05
9.33596e-05
9.30918e-05
9.45281e-05
9.37492e-05
9.65225e-05
9.09735e-05
9.51913e-05
0.000113429
0.000175996
0.000346175
0.000485954
0.000465022
0.000483038
0.000436104
0.000271924
0.0001443
0.000100616
9.15584e-05
9.1413e-05
9.2659e-05
9.07668e-05
9.02919e-05
8.98812e-05
9.26264e-05
9.71401e-05
9.22305e-05
9.70856e-05
9.32807e-05
9.6807e-05
9.38746e-05
8.91648e-05
8.31008e-05
7.71553e-05
7.22179e-05
6.99355e-05
5.31561e-05
2.02903e-05
2.1524e-06
1.49266e-08
4.63388e-10
6.93398e-07
1.46017e-05
5.73146e-05
8.61309e-05
9.63048e-05
0.000105088
0.00010746
0.000105221
0.000103772
0.000105495
0.000105565
9.96689e-05
9.58594e-05
9.53891e-05
9.82809e-05
0.000103091
9.4963e-05
9.53216e-05
9.58325e-05
9.42529e-05
9.05719e-05
9.52717e-05
0.000109851
0.000170599
0.000313482
0.000416582
0.000388214
0.000399849
0.000380348
0.00025569
0.000148483
9.88192e-05
9.388e-05
0.000100788
9.29671e-05
9.03092e-05
9.05967e-05
9.36496e-05
9.56006e-05
9.42943e-05
9.25183e-05
9.79846e-05
9.21198e-05
9.38831e-05
0.000101282
0.000100393
8.45068e-05
8.44716e-05
7.86082e-05
7.57113e-05
5.46647e-05
2.10327e-05
2.22373e-06
1.54458e-08
4.72823e-10
7.09934e-07
1.4897e-05
5.74973e-05
9.47702e-05
0.000107735
0.000121974
0.000116123
0.000107279
0.000107046