/*--------------------------------*- C++ -*----------------------------------*\
  =========                 |
  \\      /  F ield         | OpenFOAM: The Open Source CFD Toolbox
   \\    /   O peration     | Website:  https://openfoam.org
    \\  /    A nd           | Version:  7
     \\/     M anipulation  |
\*---------------------------------------------------------------------------*/
FoamFile
{
    version     2.0;
    format      ascii;
    class       volScalarField;
    location    "30";
    object      p;
}
// * * * * * * * * * * * * * * * * * * * * * * * * * * * * * * * * * * * * * //

dimensions      [0 2 -2 0 0 0 0];

internalField   nonuniform List<scalar> 
17475
(
0.725731
0.411307
0.3221
0.283707
0.261344
0.246643
0.236332
0.228869
0.223408
0.219432
0.216603
0.214683
0.213499
0.212916
0.212824
0.21313
0.213753
0.21462
0.215662
0.216817
0.218023
0.219224
0.220369
0.221408
0.222301
0.223015
0.223522
0.223802
0.223849
0.223664
0.223259
0.222656
0.221885
0.220983
0.219997
0.218977
0.217978
0.21706
0.216289
0.215732
0.215466
0.215574
0.21615
0.217304
0.21917
0.221921
0.225786
0.231083
0.238278
0.248082
0.261629
0.280791
0.308423
0.351074
0.373028
0.286661
0.303497
0.28834
0.269875
0.254267
0.242424
0.233546
0.226894
0.221934
0.218291
0.215695
0.213948
0.212898
0.212423
0.212423
0.212811
0.213508
0.214444
0.215551
0.216767
0.21803
0.219285
0.220479
0.221563
0.222495
0.223236
0.223761
0.22405
0.224095
0.223898
0.223471
0.222837
0.222027
0.22108
0.220043
0.218966
0.217906
0.216924
0.216083
0.215452
0.215105
0.21512
0.215588
0.21661
0.21831
0.220839
0.224397
0.229251
0.235775
0.244511
0.256284
0.272414
0.294768
0.330779
0.340165
0.255164
0.251174
0.249871
0.24413
0.237564
0.231205
0.225642
0.221074
0.217486
0.21479
0.212879
0.21165
0.211009
0.21087
0.211159
0.211802
0.212734
0.213888
0.215203
0.216615
0.218064
0.219493
0.220844
0.222068
0.223116
0.223945
0.224528
0.224843
0.224882
0.224646
0.224149
0.223416
0.222482
0.22139
0.220188
0.218932
0.21768
0.216492
0.215431
0.214566
0.213962
0.213689
0.213822
0.21444
0.215633
0.2175
0.220156
0.223729
0.228355
0.234151
0.241135
0.249033
0.256353
0.261256
0.252644
0.20891
0.217635
0.22267
0.222507
0.220628
0.218042
0.215384
0.212984
0.211005
0.209517
0.208534
0.208039
0.207999
0.208371
0.209107
0.210157
0.211466
0.212978
0.214635
0.216377
0.218141
0.219865
0.221491
0.222953
0.224197
0.22518
0.225864
0.226223
0.22625
0.225945
0.225325
0.224419
0.22327
0.221925
0.220442
0.21888
0.217303
0.215771
0.21435
0.213104
0.212091
0.211367
0.210988
0.211006
0.211467
0.212413
0.213867
0.215826
0.21823
0.220908
0.223478
0.225223
0.224704
0.218443
0.203533
0.186734
0.193292
0.199713
0.203275
0.204713
0.204884
0.204481
0.203905
0.203398
0.203102
0.203097
0.203419
0.204079
0.205069
0.206367
0.207941
0.209752
0.21175
0.213883
0.21609
0.218305
0.220463
0.222483
0.224297
0.225837
0.227048
0.227883
0.228311
0.228316
0.227906
0.227099
0.225933
0.224461
0.222743
0.220848
0.218845
0.216804
0.214789
0.212877
0.21112
0.209572
0.208275
0.207267
0.206574
0.206208
0.206163
0.206403
0.206852
0.207363
0.207688
0.2074
0.205825
0.202102
0.194187
0.183878
0.173011
0.177519
0.183385
0.187924
0.190791
0.192566
0.193703
0.194512
0.195215
0.19597
0.196879
0.19801
0.199399
0.201063
0.202998
0.20519
0.207609
0.210216
0.21296
0.215777
0.218602
0.221341
0.223906
0.226211
0.228169
0.229706
0.230757
0.231281
0.231257
0.230693
0.229618
0.228083
0.226158
0.223922
0.221462
0.218865
0.21621
0.213576
0.211042
0.208661
0.206476
0.204523
0.202824
0.201383
0.20019
0.199209
0.198376
0.197587
0.196679
0.195414
0.193457
0.190324
0.185589
0.178683
0.172237
0.162477
0.165809
0.170878
0.175447
0.178797
0.181348
0.183396
0.185142
0.186753
0.188361
0.190067
0.191945
0.194045
0.196398
0.199017
0.201899
0.205023
0.208359
0.211855
0.215454
0.219058
0.222565
0.225866
0.228843
0.231381
0.233375
0.234732
0.235393
0.235327
0.234544
0.233091
0.231039
0.228489
0.22555
0.222339
0.218966
0.215525
0.212126
0.208845
0.205733
0.202834
0.200172
0.197757
0.195582
0.193618
0.191819
0.190109
0.188381
0.186495
0.184273
0.181487
0.177815
0.173005
0.167254
0.162886
0.153208
0.15574
0.160003
0.164357
0.167905
0.170875
0.173468
0.175832
0.178095
0.180367
0.182737
0.185279
0.188043
0.191072
0.194392
0.19801
0.201926
0.206111
0.210524
0.215079
0.219679
0.224191
0.228475
0.232372
0.235718
0.238357
0.24015
0.241008
0.240881
0.239786
0.237793
0.235016
0.231604
0.227715
0.22351
0.219134
0.21471
0.210382
0.206219
0.202279
0.1986
0.195199
0.192073
0.189204
0.186554
0.184066
0.181666
0.179262
0.176742
0.173972
0.170803
0.167013
0.162412
0.157469
0.154194
0.144463
0.146393
0.149917
0.153981
0.157603
0.160809
0.163736
0.166506
0.169227
0.171993
0.174887
0.177981
0.181339
0.185009
0.189028
0.19342
0.198188
0.203345
0.208823
0.214541
0.2204
0.226228
0.231834
0.237
0.241487
0.245054
0.247484
0.248629
0.248413
0.246862
0.244087
0.240272
0.235657
0.230473
0.224951
0.219275
0.213643
0.208201
0.203023
0.198167
0.193663
0.189515
0.185708
0.182208
0.178967
0.175925
0.173008
0.170134
0.167209
0.164127
0.16079
0.157037
0.152797
0.148722
0.146223
0.135921
0.137415
0.140328
0.144059
0.147637
0.150926
0.154021
0.15703
0.160046
0.163156
0.166439
0.169968
0.173814
0.178043
0.182713
0.187865
0.193564
0.199783
0.206487
0.213607
0.221031
0.228587
0.235989
0.242934
0.249067
0.254008
0.257394
0.258977
0.258624
0.256381
0.252442
0.247109
0.240779
0.23381
0.226522
0.219187
0.212082
0.205326
0.199007
0.193169
0.187824
0.182954
0.178524
0.174481
0.170762
0.1673
0.164014
0.160828
0.157659
0.154429
0.151052
0.147424
0.143504
0.140011
0.138057
0.127391
0.128575
0.131004
0.134375
0.137798
0.141035
0.144152
0.147245
0.150401
0.153701
0.157224
0.161051
0.165265
0.169949
0.175188
0.18106
0.187646
0.194977
0.203049
0.211821
0.221189
0.230983
0.24085
0.250334
0.258906
0.265953
0.27084
0.273118
0.272545
0.269206
0.263451
0.255835
0.247004
0.237536
0.227878
0.218471
0.209578
0.201319
0.193765
0.186925
0.180774
0.175257
0.1703
0.165824
0.161757
0.158015
0.154526
0.151206
0.147966
0.144723
0.141403
0.137941
0.134388
0.131443
0.129868
0.118746
0.119696
0.121725
0.12472
0.127897
0.130967
0.133973
0.137007
0.14015
0.143478
0.147074
0.151027
0.155435
0.160406
0.166045
0.172511
0.179889
0.188279
0.19778
0.208406
0.220109
0.232741
0.245985
0.259162
0.271458
0.281865
0.289246
0.292689
0.291742
0.286553
0.277834
0.266652
0.254108
0.241086
0.228319
0.216358
0.205386
0.195501
0.186705
0.178933
0.172083
0.166054
0.160723
0.156006
0.151793
0.147969
0.14444
0.141122
0.137933
0.134793
0.13163
0.128402
0.125228
0.12275
0.121487
0.109917
0.110693
0.112373
0.11496
0.117802
0.120601
0.123377
0.126213
0.129183
0.132363
0.135839
0.139707
0.144079
0.14909
0.154884
0.161651
0.169558
0.178804
0.189582
0.202105
0.216442
0.232558
0.250258
0.268828
0.286968
0.303008
0.314769
0.320325
0.318691
0.310185
0.29636
0.27938
0.261201
0.243221
0.226534
0.211545
0.198348
0.186889
0.177005
0.168503
0.161216
0.154974
0.149577
0.144868
0.140708
0.136981
0.133586
0.13043
0.127437
0.124526
0.121623
0.118698
0.115916
0.113859
0.112861
0.100856
0.101475
0.102834
0.104994
0.107437
0.10987
0.112302
0.1148
0.117436
0.120281
0.12342
0.126951
0.130998
0.135696
0.141271
0.147901
0.15584
0.165416
0.176997
0.190984
0.207851
0.227849
0.251077
0.277254
0.304727
0.330618
0.350693
0.360422
0.357399
0.342439
0.319247
0.29257
0.265843
0.241366
0.220064
0.201945
0.186757
0.174109
0.163636
0.154985
0.14778
0.14172
0.136583
0.132174
0.128327
0.124933
0.121874
0.119047
0.116396
0.113838
0.111302
0.108767
0.106412
0.104714
0.103882
0.0915671
0.0920562
0.0931055
0.0948023
0.0967647
0.0987476
0.100732
0.102769
0.104916
0.107236
0.109806
0.112715
0.116079
0.120062
0.124878
0.130733
0.137939
0.146904
0.158182
0.172497
0.190696
0.213872
0.243047
0.278785
0.320672
0.364441
0.401655
0.420565
0.414432
0.385499
0.344069
0.301136
0.262511
0.23054
0.204807
0.184397
0.168348
0.155753
0.145767
0.137744
0.131264
0.125934
0.121527
0.117808
0.114607
0.111806
0.109296
0.106988
0.104821
0.10273
0.100657
0.0985921
0.0967115
0.095406
0.0947707
0.0820867
0.0824526
0.0831818
0.0843826
0.0858163
0.0872782
0.0887246
0.0901808
0.0916873
0.0932932
0.0950574
0.0970534
0.099378
0.102188
0.105626
0.109909
0.115338
0.12233
0.131496
0.143729
0.160361
0.183297
0.215403
0.259892
0.320315
0.395973
0.471135
0.512504
0.498777
0.436625
0.358536
0.290568
0.239176
0.201663
0.174687
0.155299
0.141112
0.130538
0.122517
0.116353
0.11152
0.107663
0.104517
0.101867
0.0996333
0.0976803
0.0959211
0.0942787
0.0927137
0.0911962
0.0896734
0.0881503
0.0867856
0.0858608
0.0854006
0.0724564
0.0726993
0.0730895
0.0737718
0.0746468
0.075545
0.0763884
0.0771716
0.077916
0.0786508
0.0794109
0.0802403
0.0811932
0.0823607
0.0838042
0.0856858
0.0881776
0.0915299
0.0962204
0.102899
0.112637
0.127576
0.151434
0.191026
0.258761
0.377488
0.537438
0.640071
0.60586
0.458902
0.313157
0.224946
0.173444
0.142725
0.123874
0.111792
0.103694
0.0980022
0.0940095
0.0910809
0.0888105
0.0871016
0.085741
0.0845976
0.0836243
0.0827419
0.0819078
0.0810866
0.0802515
0.07938
0.0784591
0.0775129
0.0766798
0.0761526
0.0758707
0.0624265
0.0624988
0.0626185
0.0629312
0.0633508
0.0637059
0.0639102
0.0639525
0.0638439
0.0635953
0.0632132
0.0626971
0.0620355
0.0612368
0.0602766
0.0591364
0.0577746
0.0561183
0.0540781
0.0514694
0.048016
0.0435159
0.0371568
0.028653
0.0161191
0.10807
0.37628
0.243148
0.086372
0.032985
0.04011
0.0464904
0.051414
0.0549688
0.0578107
0.0599504
0.0616932
0.0630921
0.064232
0.0651775
0.0659461
0.0665631
0.0670384
0.0673763
0.0675818
0.0676568
0.0676001
0.0674155
0.0671165
0.0667486
0.0664421
0.0663262
0.0662841
0.0508937
0.0510865
0.0516119
0.0521288
0.0523255
0.052134
0.0516382
0.0508722
0.0498578
0.0485811
0.0469994
0.0450586
0.042693
0.0398271
0.0363333
0.0320174
0.026596
0.0196232
0.0103692
-0.00242772
-0.0210799
-0.050057
-0.0991741
-0.191013
-0.321052
-0.422638
-0.259195
-0.129927
-0.0645642
-0.0278923
-0.00523169
0.00991807
0.0205978
0.0284645
0.0344541
0.0391419
0.0428775
0.0458884
0.0483246
0.0503284
0.05195
0.0532453
0.054278
0.0550313
0.0555497
0.0558688
0.0560172
0.0560172
0.0558996
0.0557533
0.0441848
0.0437953
0.0434761
0.0427533
0.0417778
0.0406928
0.039437
0.037922
0.0360503
0.0337783
0.0310226
0.0277256
0.0237816
0.0190063
0.0132044
0.00609967
-0.00271498
-0.0138461
-0.0282261
-0.0473186
-0.0734701
-0.110695
-0.167557
-0.254705
-0.340678
-0.296729
-0.2022
-0.13062
-0.0849293
-0.0536593
-0.0312705
-0.0147506
-0.00221602
0.00752095
0.0152301
0.0214329
0.0264923
0.0306518
0.0340568
0.0368752
0.0392047
0.0411006
0.0426502
0.0438733
0.0447706
0.0453423
0.0455539
0.0453949
0.045186
0.0332457
0.0332603
0.0329323
0.0323432
0.0313955
0.0299772
0.0281137
0.0258331
0.0231205
0.0199075
0.0161016
0.0115804
0.00621357
-0.000228608
-0.00796741
-0.0173132
-0.0286956
-0.0427013
-0.0601541
-0.0821455
-0.110044
-0.145259
-0.188777
-0.235336
-0.25464
-0.266071
-0.270645
-0.248226
-0.210336
-0.161371
-0.121093
-0.0891968
-0.064287
-0.0447379
-0.0292633
-0.0168568
-0.00679241
0.0014508
0.00825515
0.0139131
0.0186509
0.0226309
0.0259739
0.0287741
0.0311213
0.0330783
0.0346954
0.0359951
0.037
0.0376861
0.0378223
0.0248395
0.0249755
0.0243979
0.023088
0.0213136
0.0192142
0.0167693
0.0138929
0.0105026
0.00651822
0.00184042
-0.00364744
-0.0100833
-0.0177135
-0.0267406
-0.0374525
-0.0502035
-0.0654099
-0.0836281
-0.105409
-0.131187
-0.161206
-0.194927
-0.225187
-0.236303
-0.237494
-0.234459
-0.22838
-0.228552
-0.233917
-0.235671
-0.230508
-0.207281
-0.170973
-0.138369
-0.110393
-0.0868871
-0.0672126
-0.0509293
-0.0373687
-0.0259977
-0.0164979
-0.00849958
-0.00172813
0.00401396
0.00889073
0.0130354
0.0165588
0.0195546
0.0221108
0.0243146
0.0262064
0.0276971
0.0285715
0.0287041
0.0166292
0.0167371
0.01617
0.0147369
0.0126323
0.0100911
0.00716349
0.00378262
-0.000145012
-0.0047134
-0.0100279
-0.0162207
-0.0234208
-0.0318363
-0.0416496
-0.0530939
-0.0664457
-0.0820126
-0.100121
-0.121089
-0.14523
-0.172784
-0.202943
-0.22707
-0.236398
-0.238787
-0.236429
-0.230794
-0.227131
-0.226425
-0.225393
-0.220604
-0.203923
-0.175856
-0.148094
-0.123309
-0.101725
-0.0830275
-0.066918
-0.053092
-0.0412132
-0.031042
-0.0223059
-0.0147731
-0.00833134
-0.00279645
0.0019671
0.00607813
0.00962003
0.0126702
0.0153024
0.0175208
0.0191838
0.0200862
0.0202036
0.00884654
0.00889348
0.00824464
0.00675849
0.00453127
0.00173849
-0.00154207
-0.00532959
-0.0096926
-0.0147168
-0.0205008
-0.0271709
-0.0348789
-0.0437493
-0.0540015
-0.0657966
-0.0793692
-0.0949421
-0.112745
-0.133006
-0.155892
-0.181587
-0.209037
-0.23017
-0.238397
-0.239916
-0.237198
-0.230199
-0.222394
-0.216892
-0.213704
-0.210419
-0.199299
-0.177997
-0.154395
-0.132558
-0.112882
-0.0952706
-0.0796496
-0.0658853
-0.0538616
-0.0433536
-0.0342093
-0.0262445
-0.0193151
-0.0132892
-0.00804756
-0.00348214
0.000492736
0.00394747
0.00692289
0.00937952
0.0111632
0.0121163
0.0122639
0.00178895
0.00188488
0.00120398
-0.000404454
-0.00281646
-0.00583449
-0.0093669
-0.0134225
-0.0180614
-0.0233645
-0.029418
-0.0363207
-0.0442063
-0.0532423
-0.0636336
-0.0754695
-0.0889294
-0.104196
-0.121442
-0.140779
-0.162364
-0.186292
-0.210976
-0.229303
-0.23692
-0.238185
-0.235083
-0.227197
-0.217225
-0.209255
-0.204679
-0.202125
-0.195297
-0.178707
-0.158341
-0.138723
-0.12065
-0.10414
-0.089211
-0.0758343
-0.0639317
-0.053384
-0.0440863
-0.0359033
-0.0287046
-0.0224007
-0.0168711
-0.0120159
-0.00776011
-0.0040299
-0.000797772
0.00187889
0.0038212
0.00485704
0.00499845
-0.00452695
-0.00439098
-0.0050436
-0.00669091
-0.00919698
-0.0123388
-0.0159979
-0.0201687
-0.0249088
-0.0302982
-0.0364244
-0.0433813
-0.051272
-0.0602275
-0.0704404
-0.0820172
-0.0950711
-0.109755
-0.126173
-0.144458
-0.164698
-0.186812
-0.209133
-0.225516
-0.232788
-0.233872
-0.230711
-0.22341
-0.214063
-0.206276
-0.20133
-0.198975
-0.193539
-0.179308
-0.160872
-0.14278
-0.125738
-0.110057
-0.0957716
-0.0828551
-0.0712553
-0.0608927
-0.0516725
-0.043494
-0.0362547
-0.029858
-0.024213
-0.0192295
-0.0148324
-0.0109526
-0.00756917
-0.00476236
-0.00274197
-0.00171111
-0.00162585
-0.0100585
-0.00987698
-0.0104786
-0.0120917
-0.0145959
-0.0177604
-0.0214341
-0.0256007
-0.030312
-0.0356451
-0.0416828
-0.0485141
-0.0562277
-0.0649263
-0.0747382
-0.0858238
-0.0982443
-0.112117
-0.127575
-0.144714
-0.163566
-0.184114
-0.204542
-0.219615
-0.226673
-0.227819
-0.225069
-0.219836
-0.213552
-0.208053
-0.203733
-0.200947
-0.195143
-0.181114
-0.163062
-0.145369
-0.128935
-0.113753
-0.0999675
-0.0875038
-0.0762763
-0.0662063
-0.0572039
-0.0491782
-0.0420403
-0.0357029
-0.0300826
-0.0250991
-0.0206779
-0.0167567
-0.0133266
-0.010486
-0.00846554
-0.0074645
-0.00742676
-0.0147988
-0.0145917
-0.0151384
-0.0166611
-0.01908
-0.0221651
-0.0257555
-0.0298172
-0.034392
-0.0395489
-0.0453625
-0.0519121
-0.0592791
-0.0675412
-0.0767897
-0.0871788
-0.0987897
-0.111721
-0.126095
-0.141991
-0.15954
-0.178675
-0.197616
-0.211762
-0.218762
-0.220171
-0.218362
-0.216289
-0.214386
-0.212102
-0.209113
-0.205743
-0.198348
-0.183209
-0.16465
-0.146665
-0.130308
-0.115515
-0.102113
-0.0900855
-0.0792828
-0.0695911
-0.0609139
-0.0531595
-0.0462426
-0.0400808
-0.0345969
-0.0297164
-0.0253689
-0.021501
-0.0181156
-0.0153323
-0.0133912
-0.0124727
-0.0124833
-0.0187406
-0.0184978
-0.0189672
-0.0203723
-0.0226486
-0.0255829
-0.0290078
-0.0328757
-0.0372168
-0.0420888
-0.0475572
-0.0536889
-0.0605547
-0.0682249
-0.0767744
-0.0863098
-0.0969634
-0.108806
-0.121938
-0.136494
-0.152628
-0.170276
-0.187792
-0.20122
-0.208255
-0.21009
-0.209703
-0.211225
-0.213798
-0.214546
-0.212915
-0.209093
-0.199871
-0.18321
-0.163901
-0.145781
-0.129528
-0.11504
-0.102145
-0.0906105
-0.0803244
-0.0711208
-0.0628852
-0.0555214
-0.048942
-0.0430682
-0.0378259
-0.0331465
-0.0289667
-0.0252422
-0.0219889
-0.0193409
-0.0175282
-0.0167027
-0.0167652
-0.0219141
-0.0216343
-0.0220124
-0.023263
-0.0253413
-0.0280539
-0.0312353
-0.0348268
-0.0388453
-0.0433357
-0.0483523
-0.0539519
-0.0601929
-0.0671409
-0.0748665
-0.0834452
-0.0929657
-0.103534
-0.115259
-0.128281
-0.14277
-0.158654
-0.174576
-0.187234
-0.194266
-0.196484
-0.197519
-0.202313
-0.208487
-0.211496
-0.211192
-0.206953
-0.196228
-0.178668
-0.15924
-0.141447
-0.125817
-0.112011
-0.0998205
-0.0890057
-0.0793984
-0.0708316
-0.0631745
-0.0563273
-0.0502036
-0.0447269
-0.0398281
-0.0354437
-0.0315183
-0.0280193
-0.024975
-0.0225234
-0.0208795
-0.0201705
-0.0202887
-0.0243667
-0.0240526
-0.0243262
-0.0253957
-0.0272259
-0.0296537
-0.0325224
-0.0357644
-0.0393823
-0.0434098
-0.0478897
-0.052869
-0.0583926
-0.0645119
-0.0712798
-0.0787531
-0.0870008
-0.0961568
-0.106311
-0.117574
-0.130109
-0.143865
-0.157832
-0.169288
-0.175906
-0.178296
-0.180338
-0.18736
-0.19572
-0.200169
-0.2009
-0.19651
-0.185172
-0.168018
-0.14972
-0.133178
-0.118802
-0.106229
-0.0951184
-0.0853026
-0.0765805
-0.0688262
-0.0618978
-0.0556956
-0.0501403
-0.0451618
-0.0406979
-0.0366932
-0.0331014
-0.0299014
-0.0271328
-0.0249315
-0.0234949
-0.0229176
-0.0230888
-0.0261419
-0.0257998
-0.0259632
-0.0268235
-0.0283775
-0.0304783
-0.0329812
-0.0358149
-0.0389711
-0.04247
-0.0463437
-0.050623
-0.055342
-0.0605374
-0.0662517
-0.0725358
-0.0794452
-0.0870416
-0.0954246
-0.104693
-0.114955
-0.126201
-0.137696
-0.147295
-0.152902
-0.155031
-0.157378
-0.165202
-0.174212
-0.179558
-0.181068
-0.17694
-0.16632
-0.151145
-0.135331
-0.121066
-0.108645
-0.0977881
-0.08819
-0.0796515
-0.0720554
-0.0652799
-0.0592224
-0.0537839
-0.0488989
-0.0445087
-0.0405611
-0.0370105
-0.033821
-0.0309831
-0.0285455
-0.0266351
-0.0254268
-0.0249875
-0.0252085
-0.0273015
-0.0269378
-0.0269967
-0.0276476
-0.0289
-0.0306376
-0.0327332
-0.035113
-0.0377579
-0.0406775
-0.0438902
-0.0474175
-0.0512823
-0.0555084
-0.0601209
-0.065147
-0.0706194
-0.0765731
-0.0830514
-0.0901357
-0.0978871
-0.10628
-0.114785
-0.121843
-0.125818
-0.127175
-0.129143
-0.136408
-0.144896
-0.150677
-0.152821
-0.149651
-0.141128
-0.129264
-0.116965
-0.105757
-0.095864
-0.0871199
-0.0793307
-0.0723364
-0.0660615
-0.0604184
-0.0553431
-0.0507692
-0.0466395
-0.0429117
-0.0395477
-0.036513
-0.0337838
-0.0313606
-0.0292967
-0.0277124
-0.0267447
-0.0264427
-0.0267073
-0.0279194
-0.0275404
-0.0275009
-0.0279455
-0.0288919
-0.030244
-0.0319017
-0.0337945
-0.0358956
-0.0382049
-0.0407314
-0.0434855
-0.0464758
-0.0497106
-0.0531958
-0.0569376
-0.06094
-0.0652099
-0.069755
-0.0745844
-0.0797158
-0.0850835
-0.0902951
-0.0943404
-0.096173
-0.0963617
-0.0976247
-0.1034
-0.11074
-0.116499
-0.119207
-0.117706
-0.112261
-0.104442
-0.0961476
-0.0883664
-0.0813005
-0.0748968
-0.0690815
-0.0637753
-0.0589254
-0.0545134
-0.0505015
-0.0468574
-0.0435405
-0.0405277
-0.037796
-0.0353238
-0.0330982
-0.0311291
-0.0294714
-0.0282288
-0.0275125
-0.0273439
-0.0276431
-0.0280564
-0.0276762
-0.0275515
-0.0277944
-0.0284245
-0.0293879
-0.0305982
-0.0319919
-0.0335398
-0.0352335
-0.0370727
-0.0390557
-0.0411787
-0.0434342
-0.0458115
-0.0482951
-0.0508644
-0.0534944
-0.0561543
-0.0588051
-0.0613909
-0.0638026
-0.0657545
-0.0666879
-0.0661787
-0.0650212
-0.0654179
-0.069363
-0.0753843
-0.0808956
-0.0841903
-0.0847028
-0.0826652
-0.0789507
-0.0745921
-0.0701867
-0.0659344
-0.0618827
-0.0580511
-0.054446
-0.0510598
-0.0479013
-0.0449784
-0.0422855
-0.0398047
-0.0375311
-0.0354563
-0.0335721
-0.0318767
-0.0303873
-0.029155
-0.0282655
-0.0277948
-0.0277518
-0.028078
-0.0277891
-0.0274036
-0.0272035
-0.0272631
-0.027598
-0.0281783
-0.0289422
-0.0298403
-0.030843
-0.0319351
-0.0331067
-0.0343465
-0.0356391
-0.0369645
-0.0382963
-0.0396006
-0.0408354
-0.0419481
-0.0428739
-0.0435316
-0.0438188
-0.0435953
-0.0426292
-0.0407309
-0.0379956
-0.0354513
-0.0349375
-0.0373684
-0.0422013
-0.0472854
-0.0511641
-0.053687
-0.0548108
-0.0547138
-0.0537998
-0.0523962
-0.050697
-0.0488203
-0.0468497
-0.0448489
-0.0428619
-0.0409154
-0.039053
-0.037295
-0.0356455
-0.0341033
-0.0326856
-0.0313939
-0.0302361
-0.0292338
-0.0284309
-0.0278888
-0.0276565
-0.0277304
-0.0280748
-0.0271833
-0.0268032
-0.0265447
-0.0264366
-0.0264925
-0.026704
-0.0270385
-0.0274591
-0.0279398
-0.0284613
-0.0290059
-0.029554
-0.0300812
-0.030556
-0.0309401
-0.0311856
-0.0312339
-0.0310128
-0.0304344
-0.0293906
-0.0277466
-0.0253526
-0.0220857
-0.0178994
-0.013258
-0.00947626
-0.00814358
-0.00957485
-0.0133923
-0.0179716
-0.0223879
-0.0266161
-0.0302728
-0.0330267
-0.0348521
-0.0358985
-0.0363434
-0.0363376
-0.036003
-0.035435
-0.0347101
-0.0338823
-0.0330004
-0.0321184
-0.0312586
-0.0304217
-0.0296358
-0.0289205
-0.0282903
-0.0277673
-0.027384
-0.0271755
-0.0271609
-0.0273357
-0.0276906
-0.0263033
-0.0259347
-0.0256229
-0.0253677
-0.0251741
-0.025044
-0.0249752
-0.0249499
-0.0249466
-0.0249444
-0.0249194
-0.0248453
-0.0246902
-0.0244154
-0.023974
-0.0233093
-0.0223529
-0.0210219
-0.0192176
-0.01682
-0.0136863
-0.00966703
-0.0046595
0.0011326
0.00703366
0.0117116
0.0137163
0.0130183
0.0100297
0.00586395
0.00106686
-0.00437196
-0.00980832
-0.0145722
-0.0183869
-0.0212786
-0.0233977
-0.0248972
-0.0259149
-0.0265606
-0.0269212
-0.0270716
-0.0270671
-0.0269623
-0.0268204
-0.026642
-0.0264483
-0.0262748
-0.0261445
-0.0260764
-0.0260886
-0.0261889
-0.0263725
-0.0266305
-0.0269924
-0.0252016
-0.0248454
-0.0244966
-0.0241167
-0.0237009
-0.0232676
-0.0228341
-0.0224041
-0.0219652
-0.0214957
-0.0209684
-0.0203519
-0.0196094
-0.018698
-0.0175665
-0.0161546
-0.0143914
-0.0121916
-0.00945631
-0.00606679
-0.00188398
0.00321782
0.00924891
0.015959
0.0225834
0.027738
0.0302755
0.0301404
0.0278246
0.0240543
0.0190694
0.0129389
0.00644947
0.000443799
-0.00466573
-0.00882889
-0.0121575
-0.014792
-0.0168614
-0.0184768
-0.0197279
-0.020695
-0.0214424
-0.0220195
-0.0224941
-0.0229015
-0.0232434
-0.0235636
-0.023891
-0.024242
-0.0246152
-0.0249924
-0.0253478
-0.0256765
-0.0260363
-0.0239373
-0.0235991
-0.0232194
-0.0227434
-0.0221396
-0.0214402
-0.0206854
-0.0198985
-0.019077
-0.0182014
-0.0172434
-0.0161693
-0.0149393
-0.0135087
-0.0118266
-0.0098337
-0.00746111
-0.00462838
-0.00124262
0.00280135
0.00761419
0.0132819
0.0198038
0.0269028
0.0337659
0.0390818
0.0418376
0.0421355
0.040366
0.0369864
0.0320567
0.0257012
0.0187674
0.0121517
0.00632487
0.00138395
-0.00273751
-0.0061597
-0.00899383
-0.0113397
-0.0132836
-0.0149017
-0.0162578
-0.017408
-0.0184012
-0.0193065
-0.020121
-0.0208763
-0.0216081
-0.0223219
-0.0230008
-0.0236039
-0.0240938
-0.02448
-0.0248371
-0.0225466
-0.022231
-0.0218396
-0.021288
-0.0205329
-0.0196104
-0.0185815
-0.0174889
-0.0163414
-0.0151244
-0.0138092
-0.0123618
-0.0107431
-0.00890936
-0.00681157
-0.00439466
-0.00159543
0.00165644
0.00543912
0.00983372
0.0149299
0.0207968
0.0273961
0.0344072
0.0410756
0.046276
0.0491697
0.0498028
0.0485786
0.0455436
0.0407864
0.0345564
0.0276318
0.020879
0.0147782
0.0094595
0.00488952
0.000979721
-0.00236122
-0.00521794
-0.00766787
-0.00977667
-0.0116046
-0.0132092
-0.0146312
-0.0159374
-0.0171539
-0.0182824
-0.0193641
-0.0204006
-0.0213529
-0.0221591
-0.022761
-0.0231796
-0.023511
-0.0210692
-0.0207757
-0.020382
-0.0197787
-0.0189116
-0.0178116
-0.0165592
-0.0152144
-0.0137991
-0.0123045
-0.0107051
-0.00896733
-0.00705449
-0.00492546
-0.00253523
0.000164734
0.00322791
0.0067109
0.0106751
0.0151892
0.0203175
0.0260938
0.0324425
0.0390795
0.0453456
0.0502509
0.053081
0.0538917
0.0529294
0.0503568
0.046345
0.0402324
0.0336201
0.0270506
0.0209943
0.0155956
0.0108496
0.00669612
0.00306489
-0.000111759
-0.00289841
-0.00535293
-0.00752642
-0.00947198
-0.01123
-0.0128391
-0.0143729
-0.0158238
-0.0171941
-0.0184879
-0.0196526
-0.0206033
-0.0212883
-0.021727
-0.0220464
-0.019544
-0.0192754
-0.0188854
-0.0182506
-0.0172994
-0.0160665
-0.014641
-0.0130976
-0.0114719
-0.00976222
-0.00794741
-0.00599654
-0.00387588
-0.00154803
0.00102557
0.0038853
0.00707345
0.0106375
0.0146257
0.019085
0.0240521
0.0295379
0.0354725
0.0415868
0.0473002
0.0517819
0.0544666
0.0553937
0.0547328
0.0524801
0.0484995
0.0431871
0.0372932
0.0311031
0.0253143
0.0200501
0.0153311
0.0111218
0.00737318
0.00403276
0.00105113
-0.00162147
-0.00402798
-0.00621337
-0.00821744
-0.0100745
-0.0118295
-0.0135279
-0.0151267
-0.0166217
-0.0179473
-0.0190111
-0.0197479
-0.0201984
-0.0204993
-0.0179875
-0.017744
-0.0173646
-0.0167151
-0.0157136
-0.0143898
-0.0128386
-0.011149
-0.00936808
-0.00750248
-0.00553595
-0.0034416
-0.0011893
0.0012526
0.00391591
0.006834
0.0100425
0.013576
0.0174665
0.0217436
0.0264316
0.0315278
0.0369522
0.042463
0.0475685
0.0515884
0.0540778
0.055052
0.0546232
0.0527548
0.0493222
0.0444903
0.0389226
0.0334051
0.0280856
0.0230952
0.0185426
0.0144162
0.010682
0.00730198
0.00423862
0.00145481
-0.00108842
-0.00342523
-0.00559195
-0.00762431
-0.00954566
-0.0114092
-0.0131849
-0.0148256
-0.016265
-0.0173987
-0.0181653
-0.0186153
-0.0188913
-0.0164215
-0.0162054
-0.0158422
-0.0151929
-0.0141684
-0.0127918
-0.0111591
-0.00937191
-0.00748701
-0.00551967
-0.00345893
-0.00128258
0.00103485
0.00351927
0.00619848
0.00909945
0.0122475
0.0156651
0.019376
0.0234
0.0277466
0.0324005
0.037282
0.0421792
0.0466807
0.0502387
0.0525017
0.0534733
0.0532191
0.0516623
0.0486842
0.0444575
0.039502
0.0343732
0.0294759
0.0249668
0.0206937
0.0167482
0.0131236
0.00979717
0.00674181
0.00393033
0.0013316
-0.00108292
-0.00334356
-0.00548033
-0.0075168
-0.00947365
-0.0113632
-0.0131084
-0.0146177
-0.0157875
-0.0165642
-0.0170038
-0.0172557
-0.0148644
-0.0146736
-0.0143304
-0.0136966
-0.0126723
-0.0112753
-0.00960335
-0.00776271
-0.00582023
-0.00379914
-0.0016944
0.000510622
0.00283791
0.00531031
0.007949
0.0107731
0.0138012
0.0170512
0.0205371
0.0242683
0.0282451
0.0324455
0.0367936
0.0411057
0.0450401
0.0481568
0.050182
0.0511163
0.0509906
0.0497048
0.0471398
0.043454
0.0390983
0.0345332
0.0300506
0.0258075
0.0218773
0.0182646
0.0148302
0.0116261
0.00864544
0.00587068
0.00328
0.000849497
-0.00144573
-0.0036303
-0.00572725
-0.00774334
-0.00967525
-0.0114773
-0.0130172
-0.0141978
-0.0149652
-0.0153905
-0.0156191
-0.0133422
-0.013174
-0.0128536
-0.0122419
-0.0112346
-0.0098465
-0.00816894
-0.00631308
-0.00435374
-0.00232114
-0.000216302
0.00197488
0.00426984
0.00668627
0.00924014
0.0119472
0.014821
0.0178721
0.0211079
0.0245316
0.028137
0.0318991
0.0357464
0.0395207
0.0429394
0.0456494
0.0474396
0.0483133
0.0482783
0.0472222
0.0450286
0.0418327
0.0380175
0.0339776
0.0299703
0.0261159
0.0224571
0.0190174
0.015824
0.0128759
0.0100333
0.00734779
0.0048144
0.00241664
0.000134556
-0.00205064
-0.00415841
-0.00619358
-0.00813157
-0.00993193
-0.0114763
-0.0126417
-0.0133917
-0.0137926
-0.0139999
-0.0118537
-0.0117113
-0.0114164
-0.0108355
-0.00986276
-0.00850312
-0.00684956
-0.00501263
-0.00307206
-0.00106351
0.00100806
0.00315137
0.00537971
0.00770745
0.0101482
0.0127131
0.0154107
0.0182472
0.0212252
0.0243433
0.0275918
0.0309438
0.0343343
0.0376271
0.0405864
0.0429293
0.0444981
0.0452976
0.0453218
0.0444543
0.0425853
0.0398283
0.0365031
0.0329447
0.0293762
0.0259086
0.0225847
0.0194149
0.0164024
0.0135657
0.010933
0.00842284
0.00598965
0.00366405
0.0014342
-0.000713776
-0.00279315
-0.0048067
-0.00672547
-0.00848351
-0.00999804
-0.0111332
-0.0118509
-0.0122318
-0.0124133
-0.0104208
-0.0102987
-0.010029
-0.00948274
-0.00855289
-0.00724093
-0.00563691
-0.00384745
-0.00195422
2.34705e-06
0.00201184
0.00407992
0.00621752
0.00843595
0.0107448
0.013152
0.0156629
0.0182804
0.0210037
0.0238285
0.0267426
0.0297195
0.0327001
0.0355666
0.0381223
0.0401417
0.0415056
0.042223
0.0422801
0.0415635
0.0399731
0.0376015
0.034715
0.031594
0.0284298
0.0253222
0.0223145
0.0194232
0.0166515
0.0139987
0.0114668
0.00906577
0.00681315
0.00463753
0.00248901
0.000406498
-0.00161244
-0.00357078
-0.00543894
-0.00714389
-0.00859058
-0.00968222
-0.0103646
-0.0107141
-0.0108756
-0.00904312
-0.00894078
-0.00869507
-0.00818411
-0.00730689
-0.00606114
-0.00452409
-0.00280424
-0.000981883
0.000899637
0.00282632
0.00480106
0.00683134
0.00892595
0.0110919
0.0133343
0.0156559
0.0180572
0.0205356
0.0230845
0.0256909
0.028329
0.0309456
0.0334387
0.0356439
0.0373802
0.0385584
0.0391908
0.0392615
0.0386621
0.0373061
0.0352677
0.0327676
0.0300395
0.0272458
0.0244738
0.0217653
0.0191392
0.016607
0.0141721
0.0118246
0.00955722
0.00736817
0.00525966
0.0032338
0.00129416
-0.000606564
-0.00247518
-0.00426758
-0.00590153
-0.00728549
-0.0083041
-0.00893451
-0.00925925
-0.00940049
-0.00772185
-0.00763821
-0.00741977
-0.00695102
-0.0061337
-0.00496235
-0.00350894
-0.00187414
-0.000138851
0.00165202
0.00348187
0.00535023
0.00726245
0.00922479
0.0112422
0.0133181
0.0154531
0.0176461
0.0198927
0.0221859
0.0245118
0.0268464
0.029142
0.0313102
0.033214
0.0347053
0.0357187
0.0362679
0.0363365
0.0358262
0.0346633
0.0329095
0.0307459
0.028366
0.0259066
0.0234443
0.0210173
0.0186472
0.0163441
0.0141096
0.011946
0.00985084
0.00781936
0.00584376
0.0039135
0.00202785
0.000200184
-0.00157311
-0.00330843
-0.00474724
-0.00604009
-0.00699197
-0.00757716
-0.00787342
-0.00799557
-0.0064754
-0.00641054
-0.00621966
-0.00579153
-0.00503622
-0.00394312
-0.00258083
-0.00104219
0.00059443
0.00228324
0.00400554
0.00575886
0.00754619
0.0093721
0.0112399
0.0131511
0.0151052
0.0170999
0.0191301
0.0211879
0.0232605
0.0253251
0.0273391
0.0292264
0.0308703
0.0321515
0.0330195
0.0334886
0.0335448
0.0331017
0.0320966
0.0305848
0.0287111
0.0266365
0.0244761
0.0222958
0.0201326
0.0180038
0.0159167
0.0138783
0.0118924
0.00995962
0.00807818
0.00624361
0.00445078
0.00269422
0.00097391
-0.00069192
-0.00225671
-0.0036978
-0.00506993
-0.00576947
-0.00626529
-0.00656424
-0.0066742
-0.00530503
-0.00525241
-0.00507925
-0.00469264
-0.00399959
-0.00299212
-0.00172735
-0.000293801
0.00123456
0.00281235
0.00441985
0.00605238
0.00771131
0.00939963
0.011119
0.01287
0.0146511
0.0164593
0.0182889
0.0201322
0.0219768
0.0238021
0.02557
0.0272145
0.0286358
0.0297366
0.0304767
0.0308711
0.0309079
0.0305141
0.0296392
0.0283301
0.0267069
0.0248994
0.0230039
0.0210798
0.0191574
0.0172503
0.0153693
0.0135207
0.011709
0.00993628
0.00820295
0.00650695
0.004846
0.00321716
0.00162158
7.24631e-05
-0.00139173
-0.00269359
-0.0037361
-0.00449868
-0.00503748
-0.00542058
-0.00543994
-0.00419586
-0.00415725
-0.00400208
-0.00365174
-0.00302445
-0.00210586
-0.000944645
0.000377667
0.00179134