/*--------------------------------*- C++ -*----------------------------------*\
  =========                 |
  \\      /  F ield         | OpenFOAM: The Open Source CFD Toolbox
   \\    /   O peration     | Website:  https://openfoam.org
    \\  /    A nd           | Version:  7
     \\/     M anipulation  |
\*---------------------------------------------------------------------------*/
FoamFile
{
    version     2.0;
    format      ascii;
    class       surfaceScalarField;
    location    "30";
    object      phi;
}
// * * * * * * * * * * * * * * * * * * * * * * * * * * * * * * * * * * * * * //

dimensions      [0 3 -1 0 0 0 0];

internalField   nonuniform List<scalar> 
34768
(
8.19179e-05
0.000969992
-0.000149618
-4.4504e-05
2.58745e-05
0.000920928
-1.58315e-05
1.08629e-05
0.000907467
-8.26129e-06
6.71125e-06
0.000904248
-5.33839e-06
4.6034e-06
0.000903533
-4.28085e-06
3.89815e-06
0.000903181
-3.61361e-06
3.49904e-06
0.000903113
-3.43767e-06
3.41617e-06
0.00090312
-3.12665e-06
3.06196e-06
0.000903263
-3.2182e-06
2.99101e-06
0.000903326
-3.07832e-06
2.97734e-06
0.0009033
-2.98701e-06
3.20538e-06
0.00090328
-3.03195e-06
2.96528e-06
0.000903565
-3.20528e-06
3.15077e-06
0.000903553
-3.20188e-06
3.35763e-06
0.000903543
-3.31835e-06
3.28312e-06
0.000903834
-3.5524e-06
3.52533e-06
0.000903726
-3.50245e-06
3.68294e-06
0.000903818
-3.66737e-06
3.65495e-06
0.000903911
-3.84626e-06
3.74053e-06
0.000904105
-4.13831e-06
4.73884e-06
0.000904099
-5.5426e-06
6.3489e-06
0.000905193
-5.2082e-06
4.35982e-06
0.000904868
-3.60408e-06
4.07042e-06
0.000904603
-5.3385e-06
-3.70962e-07
0.000909279
-7.01298e-07
1.27428e-06
0.000908627
-1.17825e-06
8.33055e-07
0.000909435
-5.40364e-07
-1.13699e-08
0.000909642
5.68426e-07
-8.55e-07
0.000909375
1.21026e-06
-1.32613e-06
0.000909206
1.35331e-06
-1.40151e-06
0.000909148
1.4016e-06
-1.38312e-06
0.000909072
1.36703e-06
-1.35271e-06
0.000909076
1.29124e-06
-1.28183e-06
0.000909091
1.27567e-06
-1.27181e-06
0.000909097
1.27155e-06
-1.27379e-06
0.000909103
1.27993e-06
-1.28874e-06
0.00090911
1.30175e-06
-1.4176e-06
0.000909217
1.73788e-06
-1.16144e-06
0.000909924
6.89981e-07
-5.21798e-07
0.000910333
4.58636e-07
-3.99021e-07
0.000910341
4.44902e-07
-4.94912e-07
0.000910251
5.51164e-07
-6.12458e-07
0.000910262
6.81108e-07
-6.56189e-07
0.000910076
7.40323e-07
-8.33026e-07
0.000910094
9.37363e-07
-1.05354e-06
0.000910017
1.18542e-06
-1.33434e-06
0.00090995
1.50549e-06
-1.70216e-06
0.000909997
1.93184e-06
-2.30128e-06
0.00091007
2.52236e-06
-2.90797e-06
0.000910086
3.37749e-06
-4.05341e-06
0.000910276
4.66412e-06
-5.53651e-06
0.000910473
6.56613e-06
-7.67442e-06
0.000910609
8.67843e-06
-6.59367e-06
0.000907415
-4.08333e-06
-2.68568e-05
0.00094044
-0.000827875
0.000143975
0.000703795
-1.99159e-05
-0.000972433
-0.000148754
0.000116776
0.00100439
-0.000925085
-9.00297e-05
7.06249e-05
0.000944477
-0.00091156
-5.65145e-05
4.60477e-05
0.000922015
-0.000907172
-3.80688e-05
3.20262e-05
0.000913202
-0.000905454
-2.73178e-05
2.3569e-05
0.000909188
-0.000904508
-2.00462e-05
1.78622e-05
0.000906676
-0.000903977
-1.56046e-05
1.37677e-05
0.000905798
-0.000903851
-1.2102e-05
1.08407e-05
0.000905096
-0.000903734
-9.76331e-06
8.72246e-06
0.000904759
-0.000903783
-7.71345e-06
7.10082e-06
0.000904379
-0.00090367
-6.28765e-06
5.64498e-06
0.000904296
-0.000903583
-5.18164e-06
4.572e-06
0.000904175
-0.000903812
-4.02813e-06
3.72726e-06
0.000904096
-0.000903751
-3.38337e-06
2.975e-06
0.000904143
-0.000903699
-2.91782e-06
2.59126e-06
0.000904008
-0.00090385
-2.31168e-06
2.15956e-06
0.000903985
-0.000903806
-2.15162e-06
1.96872e-06
0.000903972
-0.000903864
-1.92779e-06
1.81017e-06
0.000903965
-0.000903925
-1.93254e-06
1.97665e-06
0.000903864
-0.000904188
-1.75881e-06
1.86106e-06
0.000904069
-0.000903954
-2.19907e-06
1.5556e-06
0.000904581
-0.000907002
-1.72646e-06
4.64248e-06
0.00090407
-0.000903337
-3.53429e-06
-1.96401e-06
0.000908821
-0.000907851
7.35671e-07
-6.19181e-07
0.00090772
-0.000908315
6.3158e-07
-5.67996e-07
0.000908238
-0.000909595
4.97451e-07
-1.36689e-07
0.000909221
-0.000910086
-6.09643e-08
-2.31097e-07
0.000910366
-0.000909514
5.22799e-07
-3.43582e-07
0.000909323
-0.00090932
6.63671e-08
-4.00704e-07
0.000909643
-0.000909104
4.80607e-07
-3.96742e-07
0.00090901
-0.000908974
2.23518e-07
-5.03463e-08
0.000908792
-0.000908989
-1.07695e-07
2.42371e-07
0.000908846
-0.000909039
-4.07749e-07
4.9693e-07
0.000908942
-0.000909072
-4.633e-07
6.01141e-07
0.000908928
-0.000909108
-6.13018e-07
5.94475e-07
0.000909121
-0.000909148
-5.47316e-07
4.68001e-07
0.000909222
-0.00090959
-2.57592e-07
1.34882e-08
0.00090983
-0.000909835
6.64057e-07
-9.77975e-07
0.000910146
-0.000910184
9.28677e-07
-1.01803e-06
0.000910271
-0.000910437
1.04763e-06
-1.21952e-06
0.000910607
-0.000910497
1.53664e-06
-1.90147e-06
0.00091086
-0.000910466
2.31852e-06
-2.79152e-06
0.000910938
-0.000910451
3.32733e-06
-4.03172e-06
0.000911154
-0.000910459
4.71442e-06
-5.5849e-06
0.000911328
-0.000910501
6.45745e-06
-7.64743e-06
0.00091169
-0.0009107
8.77593e-06
-1.01681e-05
0.000912091
-0.000910888
1.1657e-05
-1.35846e-05
0.000912814
-0.000911325
1.56044e-05
-1.8087e-05
0.000913806
-0.000911923
2.09256e-05
-2.45466e-05
0.000915542
-0.000913091
2.88187e-05
-3.40798e-05
0.000918351
-0.000915115
4.06656e-05
-4.89581e-05
0.000923407
-0.000918919
5.99691e-05
-7.43024e-05
0.000933251
-0.000924559
9.39766e-05
-0.000124302
0.000954885
-0.000978491
0.000165435
-0.000143449
0.000956506
-0.000599899
8.47715e-05
0.000519308
-4.19782e-06
-0.00102199
-0.000134048
0.000131343
0.00102469
-0.000962816
-0.000111552
9.33026e-05
0.000981056
-0.000933235
-7.92137e-05
6.78766e-05
0.000944563
-0.000920451
-5.86266e-05
5.08812e-05
0.000928187
-0.000914176
-4.42486e-05
3.87995e-05
0.000919614
-0.000910596
-3.40636e-05
2.99869e-05
0.000914659
-0.000908073
-2.64684e-05
2.27966e-05
0.000911731
-0.000907048
-2.02215e-05
1.79619e-05
0.000909292
-0.000906176
-1.5783e-05
1.38306e-05
0.000908112
-0.000905681
-1.20898e-05
1.05166e-05
0.000907237
-0.000905159
-9.30894e-06
7.92881e-06
0.000906522
-0.00090505
-6.682e-06
5.83845e-06
0.000905876
-0.000904714
-4.70619e-06
3.8592e-06
0.000905543
-0.000904527
-3.21042e-06
2.53451e-06
0.000905185
-0.000904474
-1.84676e-06
1.42445e-06
0.000904878
-0.000904142
-9.83819e-07
6.03104e-07
0.000904505
-0.000904127
-1.99302e-07
-4.81916e-08
0.000904357
-0.000904024
2.22186e-07
-2.42724e-07
0.000904027
-0.000904032
5.93136e-07
-5.92668e-07
0.000904015
-0.000903751
3.25182e-07
-9.09305e-07
0.000904319
-0.000904781
1.22796e-06
-1.04053e-07
0.000903641
-0.000906044
2.15026e-06
-3.741e-06
0.00090762
-0.000907892
3.20761e-06
-2.80578e-06
0.000907476
-0.000907741
2.18918e-06
-2.10913e-06
0.000907647
-0.000907987
1.98182e-06
-1.92438e-06
0.000907916
-0.000908533
1.5195e-06
-1.01541e-06
0.000908016
-0.000910552
4.19423e-07
-4.88579e-07
0.000910609
-0.000909092
5.57374e-07
-2.50347e-07
0.000908774
-0.000909766
-1.90195e-07
4.82247e-07
0.000909463
-0.000908786
-5.48615e-07
7.66221e-07
0.000908559
-0.000908524
-1.13788e-06
1.49291e-06
0.00090816
-0.000908627
-1.81373e-06
2.09095e-06
0.000908342
-0.000908701
-2.37636e-06
2.46227e-06
0.000908608
-0.000908963
-2.69994e-06
2.78324e-06
0.000908874
-0.000909141
-2.81307e-06
2.78458e-06
0.000909164
-0.000909333
-2.69819e-06
2.45026e-06
0.000909576
-0.000910536
-1.74092e-06
4.67538e-07
0.000911806
-0.000910355
-5.26136e-07
5.16415e-07
0.000910362
-0.000910491
-1.36304e-07
-3.16638e-07
0.000910941
-0.000910947
7.45792e-07
-1.35436e-06
0.000911554
-0.000911335
1.94722e-06
-2.72874e-06
0.000912115
-0.00091167
3.60635e-06
-4.58617e-06
0.000912648
-0.000912074
5.67923e-06
-6.89502e-06
0.000913289
-0.000912583
8.34963e-06
-9.85723e-06
0.00091409
-0.000913152
1.15405e-05
-1.35237e-05
0.000915135
-0.000914071
1.56382e-05
-1.81223e-05
0.000916554
-0.000915285
2.09237e-05
-2.39997e-05
0.000918361
-0.000917253
2.76273e-05
-3.1696e-05
0.000921321
-0.000920237
3.65261e-05
-4.21652e-05
0.000925876
-0.000925326
4.88026e-05
-5.66785e-05
0.000933201
-0.000934044
6.59939e-05
-7.73363e-05
0.000945387
-0.000950142
9.11163e-05
-0.000108209
0.000967235
-0.000985617
0.000130275
-0.000154834
0.00101018
-0.000906902
0.000157613
-9.17264e-05
0.000841019
-0.000458804
4.87876e-05
0.000412762
-2.76333e-06
-0.0010141
-0.000100388
0.000119958
0.000994509
-0.00099763
-0.000114052
0.000100496
0.00101117
-0.000955676
-8.76676e-05
7.70352e-05
0.00096629
-0.000936184
-6.79331e-05
6.01351e-05
0.000943963
-0.000925496
-5.3318e-05
4.7302e-05
0.000931492
-0.000919143
-4.19873e-05
3.72531e-05
0.000923857
-0.00091511
-3.30407e-05
2.92596e-05
0.000918871
-0.000912442
-2.59771e-05
2.29186e-05
0.000915479
-0.000910209
-2.00671e-05
1.70627e-05
0.000913192
-0.000909014
-1.50101e-05
1.28515e-05
0.000911152
-0.000908066
-1.07912e-05
9.19249e-06
0.000909644
-0.000907147
-7.55959e-06
6.05963e-06
0.000908627
-0.000906482
-4.70437e-06
3.46409e-06
0.000907702
-0.000906121
-2.25294e-06
1.34511e-06
0.000907009
-0.000905428
-5.56509e-07
-2.37739e-07
0.000906203
-0.000905083
1.02007e-06
-1.71283e-06
0.000905757
-0.00090467
2.09766e-06
-2.49653e-06
0.000905051
-0.000904384
2.89171e-06
-3.20326e-06
0.000904678
-0.00090392
3.11402e-06
-3.84353e-06
0.000904633
-0.000904577
4.17216e-06
-3.22544e-06
0.000903614
-0.000905777
5.40236e-06
-7.06051e-06
0.00090742
-0.000907082
6.56568e-06
-6.40977e-06
0.000906911
-0.000906934
5.8342e-06
-5.34308e-06
0.000906428
-0.000907054
4.89706e-06
-4.08115e-06
0.000906225
-0.000908192
3.36126e-06
-3.27842e-06
0.000908097
-0.000907159
2.53951e-06
-1.78129e-06
0.000906388
-0.000910351
1.13848e-06
-7.26671e-07
0.000909928
-0.000908245
4.96216e-07
1.2234e-07
0.000907615
-0.000908443
-9.58167e-07
1.81679e-06
0.000907574
-0.000908583
-1.87134e-06
2.23168e-06
0.000908214
-0.000907697
-2.80763e-06
3.37773e-06
0.000907118
-0.000907967
-3.9021e-06
4.35992e-06
0.000907502
-0.00090836
-4.67118e-06
5.07662e-06
0.000907948
-0.000908756
-5.30649e-06
5.45382e-06
0.000908603
-0.000909188
-5.51854e-06
5.59534e-06
0.000909106
-0.000909749
-5.38406e-06
4.9811e-06
0.000910148
-0.000912836
-4.08627e-06
3.69527e-06
0.000913223
-0.000910759
-3.20635e-06
2.61807e-06
0.000911344
-0.000911514
-2.0286e-06
1.33512e-06
0.000912205
-0.000912215
-5.34405e-07
-4.77501e-07
0.000913225
-0.000913084
1.50491e-06
-2.55252e-06
0.00091413
-0.000913852
3.82893e-06
-5.24078e-06
0.000915262
-0.000914868
6.89991e-06
-8.51518e-06
0.000916482
-0.000916004
1.0505e-05
-1.25833e-05
0.000918081
-0.00091737
1.48727e-05
-1.74979e-05
0.000919994
-0.000919237
2.0288e-05
-2.34791e-05
0.000922427
-0.000921983
2.69127e-05
-3.08406e-05
0.000925909
-0.000925961
3.51204e-05
-4.00264e-05
0.000930866
-0.000931953
4.55411e-05
-5.16621e-05
0.000938073
-0.000941239
5.87139e-05
-6.67317e-05
0.000949256
-0.000956539
7.58824e-05
-8.61817e-05
0.000966838
-0.000983016
9.76284e-05
-0.00011178
0.000997167
-0.00102512
0.000126595
-0.000130796
0.00102932
-0.000771936
0.000102323
-3.93516e-05
0.000708967
-0.000377075
2.96534e-05
0.000349087
-1.68418e-06
-0.000969787
-7.16126e-05
9.9001e-05
0.000942379
-0.00102161
-0.000104399
9.75177e-05
0.00102847
-0.00097621
-8.76391e-05
7.81143e-05
0.000985716
-0.000951444
-6.98827e-05
6.26661e-05
0.00095864
-0.000937553
-5.61699e-05
5.03568e-05
0.000943346
-0.000928682
-4.50713e-05
4.02308e-05
0.000933502
-0.000922822
-3.58125e-05
3.18527e-05
0.000926761
-0.000918643
-2.81349e-05
2.47054e-05
0.000922051
-0.000915707
-2.16624e-05
1.8856e-05
0.000918493
-0.000913525
-1.62878e-05
1.38157e-05
0.000915976
-0.000911746
-1.11437e-05
8.94418e-06
0.000913926
-0.00091031
-7.12676e-06
5.35608e-06
0.00091206
-0.000909306
-3.44464e-06
2.06994e-06
0.000910661
-0.000907955
-7.44528e-07
-6.57908e-07
0.000909338
-0.000907111
1.81774e-06
-2.95896e-06
0.000908233
-0.000906437
3.86213e-06
-4.44825e-06
0.000907004
-0.00090571
5.40141e-06
-5.83829e-06
0.000906128
-0.000904618
6.04171e-06
-7.23191e-06
0.000905791
-0.000905056
7.68418e-06
-6.8253e-06
0.00090418
-0.000905854
9.26472e-06
-1.12209e-05
0.000907794
-0.000906848
1.07045e-05
-1.06729e-05
0.000906801
-0.000906398
1.01212e-05
-9.49437e-06
0.000905756
-0.000905897
8.94432e-06
-8.13569e-06
0.000905074
-0.000905456
7.27529e-06
-6.45483e-06
0.000904622
-0.000907348
5.57881e-06
-4.81716e-06
0.000906573
-0.000905526
3.71437e-06
-2.6034e-06
0.000904403
-0.000909389
1.63809e-06
-9.51562e-07
0.000908691
-0.000906865
2.16703e-07
6.07005e-07
0.000906031
-0.000906776
-1.68588e-06
2.63825e-06
0.000905815
-0.0009076
-3.29212e-06
4.06366e-06
0.00090682
-0.000906416
-4.93793e-06
5.77429e-06
0.000905572
-0.000906938
-6.53828e-06
7.19862e-06
0.000906271
-0.000907565
-7.80245e-06
8.26157e-06
0.0009071
-0.00090831
-8.61261e-06
8.8493e-06
0.000908068
-0.000909114
-8.97067e-06
8.97296e-06
0.000909107
-0.000911366
-8.65513e-06
7.61382e-06
0.000912403
-0.000912665
-6.85032e-06
6.8563e-06
0.000912655
-0.000911811
-6.33472e-06
5.68594e-06
0.000912456
-0.000913006
-4.80722e-06
3.89914e-06
0.000913911
-0.00091417
-2.85703e-06
1.57948e-06
0.000915445
-0.000915538
-2.6333e-07
-1.19587e-06
0.000916994
-0.000916856
2.80355e-06
-4.66689e-06
0.000918717
-0.000918501
6.59259e-06
-8.69069e-06
0.000920597
-0.000920377
1.10741e-05
-1.35542e-05
0.000922855
-0.000922743
1.62483e-05
-1.91741e-05
0.000925666
-0.000925735
2.23553e-05
-2.60211e-05
0.000929397
-0.000930024
2.97913e-05
-3.39016e-05
0.000934131
-0.000935776
3.83917e-05
-4.34045e-05
0.000940785
-0.000944244
4.8884e-05
-5.48886e-05
0.000950244
-0.000956921
6.0958e-05
-6.72697e-05
0.000963228
-0.000975898
7.51048e-05
-8.37879e-05
0.000984577
-0.00100933
9.35847e-05
-0.000103557
0.0010193
-0.00102461
0.000108737
-9.76837e-05
0.00101355
-0.000655156
6.21753e-05
-1.7594e-05
0.000610573
-0.00032675
1.91018e-05
0.000308695
-1.06329e-06
-0.000914418
-5.11193e-05
7.84215e-05
0.0008871
-0.00103217
-9.04954e-05
8.96295e-05
0.00103302
-0.000994038
-8.29963e-05
7.53469e-05
0.00100167
-0.000965579
-6.82722e-05
6.18906e-05
0.000971948
-0.000949471
-5.60662e-05
5.09854e-05
0.000954538
-0.00093827
-4.55499e-05
4.04436e-05
0.000943363
-0.00093085
-3.555e-05
3.1452e-05
0.000934933
-0.000925467
-2.76248e-05
2.40335e-05
0.000929042
-0.000921526
-2.07822e-05
1.77353e-05
0.000924557
-0.00091849
-1.48994e-05
1.22445e-05
0.000921128
-0.000916175
-9.88196e-06
7.58051e-06
0.000918458
-0.000914181
-5.65779e-06
3.47957e-06
0.000916341
-0.000912274
-1.36639e-06
-5.01849e-07
0.000914124
-0.000910865
2.20943e-06
-3.77812e-06
0.000912415
-0.000909379
5.18848e-06
-6.35964e-06
0.000910531
-0.000908174
7.67465e-06
-8.64839e-06
0.00090913
-0.00090652
9.16008e-06
-1.07332e-05
0.000908075
-0.000906399
1.16328e-05
-1.09857e-05
0.000905734
-0.000906846
1.4022e-05
-1.61021e-05
0.000908909
-0.000907258
1.56873e-05
-1.59136e-05
0.000907468
-0.000906184
1.53713e-05
-1.49873e-05
0.000905784
-0.000905295
1.4453e-05
-1.35577e-05
0.000904385
-0.000904154
1.26107e-05
-1.16337e-05
0.000903163
-0.000903552
1.04714e-05
-9.36582e-06
0.000902433
-0.000905557
8.46355e-06
-6.96758e-06
0.000904049
-0.000903062
5.42211e-06
-3.86035e-06
0.000901489
-0.000907806
2.39301e-06
-1.16441e-06
0.000906567
-0.000904821
1.8699e-08
1.45799e-06
0.000903335
-0.000904661
-2.88711e-06
4.47486e-06
0.000903064
-0.000905906
-6.01489e-06
6.6973e-06
0.000905217
-0.000904572
-7.75014e-06
8.90242e-06
0.000903413
-0.000905469
-9.96885e-06
1.09086e-05
0.000904523
-0.000906645
-1.1634e-05
1.23866e-05
0.000905887
-0.00090777
-1.2893e-05
1.33478e-05
0.000907311
-0.000909182
-1.34499e-05
1.31969e-05
0.000909432
-0.000913949
-1.19902e-05
1.0829e-05
0.000915108
-0.000912595
-1.13954e-05
1.13054e-05
0.000912682
-0.000913378
-1.05604e-05
9.76106e-06
0.000914176
-0.000915018
-8.80634e-06
7.59815e-06
0.000916224
-0.00091674
-6.23524e-06
4.81912e-06
0.000918155
-0.000918589
-3.24802e-06
1.52094e-06
0.000920314
-0.000920626
4.66793e-07
-2.51546e-06
0.000922673
-0.000922846
4.73091e-06
-7.22044e-06
0.000925333
-0.000925583
9.78754e-06
-1.25426e-05
0.000928336
-0.000928825
1.55956e-05
-1.87567e-05
0.000931983
-0.000932953
2.22409e-05
-2.58594e-05
0.000936568
-0.000938271
2.97264e-05
-3.39691e-05
0.00094251
-0.000945621
3.83916e-05
-4.25245e-05
0.000949749
-0.000954998
4.67777e-05
-5.21818e-05
0.000960397
-0.00096996
5.80699e-05
-6.43745e-05
0.000976259
-0.000992581
7.10342e-05
-7.83542e-05
0.000999896
-0.001027
8.58629e-05
-9.14168e-05
0.00103254
-0.000998457
8.92061e-05
-7.17226e-05
0.00098097
-0.000574114
3.99652e-05
-1.00206e-05
0.000544167
-0.000293781
1.31492e-05
0.000281335
-7.19916e-07
-0.000860954
-3.73065e-05
6.16778e-05
0.000836568
-0.00103148
-7.64337e-05
7.97989e-05
0.0010281
-0.00100861
-7.62916e-05
7.02806e-05
0.00101461
-0.000977895
-6.40796e-05
5.8193e-05
0.000983769
-0.000959721
-5.29637e-05
4.79602e-05
0.000964711
-0.000947837
-4.32415e-05
3.88636e-05
0.0009522
-0.000939526
-3.47152e-05
3.07659e-05
0.00094346
-0.000933494
-2.70223e-05
2.36655e-05
0.000936835
-0.000927778
-1.94664e-05
1.54367e-05
0.000931791
-0.000923883
-1.11775e-05
8.31146e-06
0.000926732
-0.000920673
-5.61569e-06
3.06742e-06
0.000923203
-0.000918136
-7.854e-07
-1.35413e-06
0.000920257
-0.000916118
3.12782e-06
-4.65795e-06
0.000917629
-0.000914
5.92364e-06
-7.65272e-06
0.00091571
-0.00091221
9.71887e-06
-1.13287e-05
0.0009138
-0.000909885
1.2458e-05
-1.45351e-05
0.000911943
-0.000909196
1.59135e-05
-1.56112e-05
0.000908874
-0.00090907
1.91959e-05
-2.07542e-05
0.00091061
-0.000909147
2.11002e-05
-2.20362e-05
0.000910065
-0.000907031
2.19547e-05
-2.17876e-05
0.000906847
-0.000905208
2.14179e-05
-2.07473e-05
0.000904521
-0.000903376
1.96744e-05
-1.87694e-05
0.000902456
-0.000901937
1.75094e-05
-1.60915e-05
0.000900505
-0.000901581
1.45136e-05
-1.30464e-05
0.000900101
-0.000901632
1.18882e-05
-9.63643e-06
0.000899368
-0.000899556
7.417e-06
-5.25673e-06
0.000897385
-0.00090506
3.18742e-06
-1.36762e-06
0.000903231
-0.000901619
-4.6966e-07
2.55069e-06
0.00089953
-0.000900584
-4.65968e-06
6.84254e-06
0.000898394
-0.000905355
-9.16707e-06
1.00925e-05
0.000904423
-0.000902182
-1.14912e-05
1.30537e-05
0.000900615
-0.00090342
-1.45048e-05
1.57815e-05
0.00090214
-0.000905114
-1.68847e-05
1.77784e-05
0.000904218
-0.000906982
-1.84769e-05
1.8976e-05
0.00090648
-0.000910352
-1.92735e-05
1.88773e-05
0.000910747
-0.000914689
-1.77876e-05
1.79877e-05
0.000914488
-0.000913116
-1.76891e-05
1.71012e-05
0.000913703
-0.000915049
-1.62241e-05
1.51671e-05
0.000916106
-0.00091743
-1.40291e-05
1.26181e-05
0.00091884
-0.000919785
-1.11346e-05
9.38415e-06
0.000921534
-0.000922266
-7.568e-06
5.48862e-06
0.000924344
-0.000924847
-3.34858e-06
9.45115e-07
0.000927249
-0.000927841
1.51869e-06
-4.14488e-06
0.000930466
-0.000931195
6.93574e-06
-9.99723e-06
0.000934254
-0.000935221
1.31274e-05
-1.65373e-05
0.000938628
-0.000940217
2.00241e-05
-2.38026e-05
0.000943993
-0.000946312
2.65458e-05
-3.00024e-05
0.000949765
-0.000954153
3.44804e-05
-3.89681e-05
0.000958637
-0.000965772
4.37825e-05
-4.86252e-05
0.000970611
-0.000982067
5.40392e-05
-5.95322e-05
0.000987556
-0.00100659
6.54588e-05
-7.14753e-05
0.00101261
-0.00103602
7.68938e-05
-7.87685e-05
0.0010379
-0.000962603
7.22604e-05
-5.37358e-05
0.000944075
-0.000519291
2.77021e-05
-6.77176e-06
0.000498359
-0.000270797
9.57849e-06
0.000261713
-5.13873e-07
-0.000814023
-2.79503e-05
4.87495e-05
0.000793206
-0.00102323
-6.37266e-05
6.95993e-05
0.00101734
-0.00101992
-6.84309e-05
6.40101e-05
0.00102432
-0.000989282
-5.86432e-05
5.32428e-05
0.000994666
-0.000969545
-4.82702e-05
4.35612e-05
0.000974236
-0.000956582
-3.90792e-05
3.47666e-05
0.000960876
-0.000947265
-3.0732e-05
2.67313e-05
0.000951246
-0.000940307
-2.30964e-05
1.93809e-05
0.000944002
-0.00093495
-1.61275e-05
1.27903e-05
0.000938266
-0.000930823
-9.80699e-06
6.9459e-06
0.000933663
-0.000927297
-4.23051e-06
1.53571e-06
0.00092997
-0.000922513
2.13621e-06
-5.88061e-06
0.000926235
-0.000919484
9.4649e-06
-1.30111e-05
0.000923008
-0.000916848
1.59798e-05
-1.7882e-05
0.000918729
-0.000914715
1.93023e-05
-1.99549e-05
0.000915346
-0.000914518
1.93017e-05
-1.69844e-05
0.000912179
-0.000912842
2.47769e-05
-2.69725e-05
0.000915016
-0.0009112
2.78572e-05
-2.88023e-05
0.000912124
-0.000909983
2.85891e-05
-2.84511e-05
0.000909826
-0.000906829
2.92387e-05
-2.93721e-05
0.000906944
-0.000903735
2.8843e-05
-2.80669e-05
0.000902941
-0.000901211
2.69169e-05
-2.54745e-05
0.000899753
-0.00089884
2.38014e-05
-2.19138e-05
0.000896938
-0.000898221
1.98229e-05
-1.75781e-05
0.000895963
-0.000897131
1.53775e-05
-1.27777e-05
0.000894519
-0.000894883
9.96399e-06
-7.0582e-06
0.000891967
-0.000901038
4.19293e-06
-1.56025e-06
0.000898397
-0.000897068
-1.07121e-06
3.9689e-06
0.000894163
-0.000895962
-6.90399e-06
9.72605e-06
0.000893134
-0.000902713
-1.22718e-05
1.42324e-05
0.000900748
-0.00089876
-1.64606e-05
1.86018e-05
0.000896616
-0.000900661
-2.05269e-05
2.22321e-05
0.000898954
-0.000903183
-2.36759e-05
2.49565e-05
0.000901902
-0.000905898
-2.57732e-05
2.62335e-05
0.000905438
-0.000911805
-2.53463e-05
2.3421e-05
0.000913731
-0.000913916
-2.47023e-05
2.55323e-05
0.000913087
-0.000914352
-2.52317e-05
2.441e-05
0.000915174
-0.000917253
-2.33646e-05
2.21112e-05
0.000918507
-0.000920261
-2.07571e-05
1.92103e-05
0.000921808
-0.000923205
-1.74785e-05
1.53675e-05
0.000925316
-0.000926346
-1.33884e-05
1.10428e-05
0.000928691
-0.000929673
-8.53778e-06
5.98151e-06
0.000932228
-0.000933305
-3.17123e-06
3.15944e-07
0.000936158
-0.000937303
2.7878e-06
-5.93227e-06
0.000940445
-0.000942096
9.01226e-06
-1.13064e-05
0.000944387
-0.000946656
1.46687e-05
-1.83779e-05
0.000950361
-0.000953788
2.22277e-05
-2.63295e-05
0.000957886
-0.000963118
3.04716e-05
-3.4762e-05
0.000967405
-0.000975479
3.93185e-05
-4.40368e-05
0.000980193
-0.000992888
4.8945e-05
-5.41719e-05
0.00099811
-0.00101821
6.00476e-05
-6.52765e-05
0.00102343
-0.00103841
6.88517e-05
-6.86748e-05
0.00103823
-0.000925955
6.08687e-05
-4.35535e-05
0.000908635
-0.000480285
2.20557e-05
-5.86581e-06
0.000464092
-0.00025392
7.1785e-06
0.000247099
-3.80222e-07
-0.000774291
-2.13823e-05
3.85932e-05
0.00075706
-0.00101034
-5.26727e-05
5.99388e-05
0.00100306
-0.001028
-6.08751e-05
5.77464e-05
0.00103112
-0.000999737
-5.3164e-05
4.81705e-05
0.00100471
-0.000979263
-4.34488e-05
3.92499e-05
0.000983443
-0.000965115
-3.4693e-05
3.03714e-05
0.000969417
-0.000955114
-2.60739e-05
2.18729e-05
0.000959294
-0.00094763
-1.74702e-05
1.37915e-05
0.000951287
-0.000941554
-1.02255e-05
6.74644e-06
0.00094501
-0.000936609
-3.48726e-06
3.18588e-07
0.000939754
-0.000932569
2.6257e-06
-5.47313e-06
0.000935392
-0.000929295
7.98459e-06
-1.01834e-05
0.000931469
-0.000925374
1.31679e-05
-1.63372e-05
0.000928519
-0.000921805
1.82178e-05
-2.05713e-05
0.000924134
-0.000919597
2.40726e-05
-2.55617e-05
0.000921061
-0.000913912
2.56717e-05
-3.54373e-05
0.000923654
-0.000915534
3.58382e-05
-3.74668e-05
0.000917139
-0.000912518
3.80187e-05
-3.85319e-05
0.000913008
-0.00090981
3.87567e-05
-3.8298e-05
0.000909329
-0.000907126
3.73244e-05
-3.79918e-05
0.000907773
-0.000901839
3.83086e-05
-3.76014e-05
0.000901113
-0.000898156
3.61423e-05
-3.43145e-05
0.000896311
-0.000894778
3.21758e-05
-2.96587e-05
0.000892246
-0.00089338
2.68744e-05
-2.38493e-05
0.000890342
-0.000891509
2.07667e-05
-1.72429e-05
0.000887974
-0.000888563
1.34345e-05
-9.45253e-06
0.000884572
-0.000895255
5.47418e-06
-1.74324e-06
0.000891517
-0.000890756
-2.00308e-06
5.98913e-06
0.000886765
-0.000889827
-1.00001e-05
1.38721e-05
0.000885952
-0.000898261
-1.74044e-05
2.05294e-05
0.000895134
-0.000894132
-2.32853e-05
2.60869e-05
0.000891331
-0.000897011
-2.86319e-05
3.08342e-05
0.00089481
-0.000900567
-3.26773e-05
3.41765e-05
0.00089907
-0.000905192
-3.50274e-05
3.41628e-05
0.00090606
-0.000914646
-3.24807e-05
3.42065e-05
0.000912924
-0.000912603
-3.55982e-05
3.54131e-05
0.000912791
-0.000915986
-3.4744e-05
3.36093e-05
0.000917124
-0.000919779
-3.24199e-05
3.08988e-05
0.000921302
-0.000923696
-2.92512e-05
2.74011e-05
0.000925548
-0.000927373
-2.52503e-05
2.29235e-05
0.000929701
-0.000931081
-2.05216e-05
1.78624e-05
0.000933739
-0.000935025
-1.51541e-05
1.22014e-05
0.000937976
-0.000939237
-9.21669e-06
6.62907e-06
0.000941822
-0.000942853
-4.33736e-06
1.09483e-06
0.000946092
-0.000947979
2.46748e-06
-6.03544e-06
0.000951543
-0.000954201
9.81358e-06
-1.36958e-05
0.000958079
-0.000961969
1.78935e-05
-2.2523e-05
0.000966593
-0.000971847
2.69366e-05
-3.20076e-05
0.000976912
-0.000984916
3.76501e-05
-4.26554e-05
0.000989915
-0.00100375
4.71273e-05
-5.09375e-05
0.00100755
-0.00102857
5.40189e-05
-5.73853e-05
0.00103193
-0.00103538
5.91823e-05
-5.63155e-05
0.00103251
-0.00089138
4.64356e-05
-3.09828e-05
0.00087592
-0.000450821
1.45469e-05
-3.21189e-06
0.00043948
-0.000241202
5.46995e-06
0.000235998
-2.8702e-07
-0.00074133
-1.65742e-05
3.06575e-05
0.000727227
-0.000995381
-4.34112e-05
5.11624e-05
0.000987614
-0.00103362
-5.32174e-05
5.1358e-05
0.00103547
-0.00100951
-4.74965e-05
4.29787e-05
0.00101401
-0.000987895
-3.86564e-05
3.41213e-05
0.000992412
-0.000973594
-2.97315e-05
2.53278e-05
0.000977979
-0.000963285
-2.10212e-05
1.64533e-05
0.000967832
-0.000955325
-1.26086e-05
8.81485e-06
0.000959097
-0.000948985
-5.09763e-06
1.5383e-06
0.000952521
-0.000943758
1.93958e-06
-5.25483e-06
0.00094705
-0.000938367
9.31521e-06
-1.33037e-05
0.000942331
-0.000934023
1.73928e-05
-2.18109e-05
0.000938415
-0.000930214
2.496e-05
-2.7488e-05
0.000932715
-0.000928111
2.93585e-05
-2.95623e-05
0.000928288
-0.000921454
3.0244e-05
-4.11266e-05
0.000932308
-0.000923405
4.12283e-05
-4.39897e-05
0.000926139
-0.000919369
4.6265e-05
-4.77827e-05
0.00092086
-0.000914057
4.93277e-05
-5.0687e-05
0.00091539
-0.000909027
5.17915e-05
-5.23455e-05
0.000909555
-0.000906635
5.19028e-05
-5.07495e-05
0.000905458
-0.000900677
5.0486e-05
-5.01615e-05
0.000900331
-0.000894339
4.85705e-05
-4.61742e-05
0.000891923
-0.000889412
4.33898e-05
-4.0138e-05
0.000886143
-0.000886858
3.64652e-05
-3.24028e-05
0.000882782
-0.000883867
2.81166e-05
-2.33854e-05
0.000879125
-0.000879905
1.81727e-05
-1.27305e-05
0.000874454
-0.000887058
7.21973e-06
-1.91767e-06
0.00088175
-0.000882059
-3.39e-06
8.93937e-06
0.000876507
-0.000881467
-1.44136e-05
1.96439e-05
0.000876235
-0.000891427
-2.43977e-05
2.87928e-05
0.000887033
-0.000888441
-3.28976e-05
3.66125e-05
0.000884729
-0.000892309
-3.96182e-05
4.24091e-05
0.000889522
-0.000897606
-4.46903e-05
4.62126e-05
0.000896089
-0.000907248
-4.59967e-05
4.4859e-05
0.000908392
-0.000910765
-4.67761e-05
4.81609e-05
0.000909387
-0.000913284
-4.81742e-05
4.75491e-05
0.000913915
-0.000918208
-4.64742e-05
4.51966e-05
0.000919491
-0.000923005
-4.35325e-05
4.16095e-05
0.000924933
-0.000927695
-3.94487e-05
3.71743e-05
0.000929973
-0.000932125
-3.45994e-05
3.19539e-05
0.000934772
-0.000936586
-2.90395e-05
2.60853e-05
0.000939541
-0.000940782
-2.3743e-05
2.11716e-05
0.000943352
-0.000944552
-1.77514e-05
1.42266e-05
0.000948074
-0.000949765
-1.03991e-05
6.0627e-06
0.000954098
-0.000955513
-1.84721e-06
-2.87533e-06
0.000960231
-0.000962234
8.31896e-06
-1.27805e-05
0.00096669
-0.000972225
1.59109e-05
-1.80164e-05
0.000974325
-0.000980225
2.12423e-05
-2.50702e-05
0.000984047
-0.000993489
2.87421e-05
-3.29347e-05
0.000997675
-0.00101198
3.73291e-05
-4.16577e-05
0.00101631
-0.00103545
4.58791e-05
-4.91356e-05
0.0010387
-0.00102931
4.98883e-05
-4.61773e-05
0.00102559
-0.0008616
3.69316e-05
-2.38062e-05
0.000848468
-0.000429745
1.08012e-05
-2.29995e-06
0.000421237
-0.000231487
4.203e-06
0.000227483
-2.18345e-07
-0.000714203
-1.29489e-05
2.45655e-05
0.000702569
-0.000979985
-3.56436e-05
4.32022e-05
0.000972413
-0.00103696
-4.60775e-05
4.50964e-05
0.00103793
-0.00101869
-4.18649e-05
3.79041e-05
0.00102263
-0.000996907
-3.33834e-05
2.89998e-05
0.00100127
-0.000982056
-2.44931e-05
2.00512e-05
0.000986479
-0.000971575
-1.53494e-05
1.13288e-05
0.000975576
-0.000963386
-7.35243e-06
3.49966e-06
0.000967218
-0.000956922
4.18668e-07
-4.10775e-06
0.000960589
-0.000950597
7.85671e-06
-1.22162e-05
0.000954932
-0.00094554
1.66213e-05
-2.13048e-05
0.000950198
-0.000941055
2.62269e-05
-2.99395e-05
0.00094474
-0.000937237
3.30363e-05
-3.54398e-05
0.000939612
-0.000933464
3.6172e-05
-3.74675e-05
0.00093473
-0.000933309
5.02679e-05
-5.27147e-05
0.000935724
-0.000928434
5.57252e-05
-5.7423e-05
0.0009301
-0.000923354
5.91025e-05
-6.10953e-05
0.000925315
-0.000916747
6.34854e-05
-6.54774e-05
0.000918707
-0.000910265
6.67635e-05
-6.75393e-05
0.000911011
-0.000904302
6.7826e-05
-6.70317e-05
0.000903479
-0.000900619
6.518e-05
-6.46058e-05
0.000900018
-0.00088965
6.42524e-05
-6.22465e-05
0.000887621
-0.000882376
5.89612e-05
-5.49042e-05
0.0008783
-0.000877805
4.9947e-05
-4.33865e-05
0.00087123
-0.000874147
3.54031e-05
-3.06291e-05
0.000869362
-0.000868062
2.47233e-05
-1.73817e-05
0.000860713
-0.000875414
9.68328e-06
-2.08898e-06
0.000867816
-0.000869971
-5.51443e-06
1.32522e-05
0.000862233
-0.00087041
-2.06079e-05
2.63228e-05
0.000864696
-0.000881153
-3.06244e-05
3.88829e-05
0.000872899
-0.000880413
-4.57646e-05
5.0867e-05
0.000875318
-0.000886575
-5.50473e-05
5.82144e-05
0.000883417
-0.000895208
-6.00858e-05
5.93564e-05
0.000895948
-0.000907676
-5.84951e-05
6.19874e-05
0.000904195
-0.000908524
-6.42059e-05
6.44756e-05
0.000908266
-0.000914753
-6.36885e-05
6.25785e-05
0.000915873
-0.000921115
-6.09751e-05
5.90399e-05
0.000923059
-0.00092702
-5.67874e-05
5.43771e-05
0.000929437
-0.000932514
-5.17185e-05
4.87563e-05
0.000935481
-0.00093778
-4.58171e-05
4.32708e-05
0.000940329
-0.000941877
-4.02554e-05
3.63828e-05
0.00094575
-0.000947079
-3.15841e-05
2.65772e-05
0.000952085
-0.000952204
-2.06556e-05
1.61966e-05
0.00095666
-0.000959856
-1.33377e-05
1.16916e-05
0.000961497
-0.000963077
-8.65693e-06
4.95527e-06
0.000966773
-0.000969717
-1.5452e-06
-2.32025e-06
0.000973577
-0.000977855
6.31849e-06
-1.04548e-05
0.000981984
-0.000988211
1.4616e-05
-1.88149e-05
0.000992403
-0.00100185
2.30508e-05
-2.73382e-05
0.00100613
-0.00102064
3.15451e-05
-3.58088e-05
0.0010249
-0.00104149
3.96506e-05
-4.22542e-05
0.00104409
-0.0010215
4.21034e-05
-3.79941e-05
0.00101739
-0.000836316
2.93737e-05
-1.82629e-05
0.000825199
-0.000413788
8.03048e-06
-1.57363e-06
0.000407325
-0.000223975
3.20461e-06
0.000220916
-1.65539e-07
-0.000691949
-1.0166e-05