/*--------------------------------*- C++ -*----------------------------------*\
  =========                 |
  \\      /  F ield         | OpenFOAM: The Open Source CFD Toolbox
   \\    /   O peration     | Website:  https://openfoam.org
    \\  /    A nd           | Version:  7
     \\/     M anipulation  |
\*---------------------------------------------------------------------------*/
FoamFile
{
    version     2.0;
    format      ascii;
    class       volVectorField;
    location    "30";
    object      U;
}
// * * * * * * * * * * * * * * * * * * * * * * * * * * * * * * * * * * * * * //

dimensions      [0 1 -1 0 0 0 0];

internalField   nonuniform List<vector> 
17475
(
(1.01809 0.205781 -1.61498e-20)
(0.995968 0.0223216 -2.54759e-20)
(0.999772 0.00972103 0)
(0.999938 0.00486046 0)
(0.999978 0.00301832 0)
(0.999991 0.00205615 0)
(0.999996 0.00146806 0)
(0.999997 0.00107069 0)
(0.999998 0.000783565 -5.17962e-20)
(0.999999 0.000566238 0)
(0.999999 0.000396061 0)
(0.999999 0.000259763 0)
(0.999999 0.000149073 0)
(0.999999 5.86132e-05 0)
(0.999999 -1.51047e-05 0)
(0.999999 -7.43785e-05 0)
(0.999999 -0.000120791 0)
(0.999999 -0.00015541 0)
(0.999999 -0.000179078 0)
(0.999999 -0.000192413 0)
(0.999999 -0.000196018 -2.00994e-19)
(0.999999 -0.000190608 5.4201e-22)
(0.999999 -0.000176953 0)
(1 -0.000155791 -6.36822e-21)
(1 -0.000128669 0)
(1 -9.55991e-05 -1.27764e-20)
(1 -5.96744e-05 0)
(1 -2.1669e-05 0)
(1 1.67555e-05 -1.60302e-21)
(1 5.39897e-05 5.1221e-20)
(1 8.84123e-05 5.03746e-20)
(1 0.000118524 0)
(1 0.000142949 0)
(1 0.000160489 -5.05737e-20)
(1 0.0001701 -5.04615e-20)
(1 0.0001709 0)
(1 0.000162118 -3.90157e-22)
(1 0.000143051 0)
(1 0.000112982 4.94566e-20)
(1 7.08065e-05 2.46635e-20)
(0.999999 1.5897e-05 -2.46048e-20)
(0.999999 -5.29796e-05 0)
(0.999999 -0.000137935 -2.46389e-20)
(0.999999 -0.000242142 0)
(0.999999 -0.000370441 -1.24369e-20)
(0.999998 -0.000530177 0)
(0.999998 -0.000732831 2.56532e-20)
(0.999997 -0.000996777 0)
(0.999996 -0.00135231 0)
(0.999993 -0.00185105 0)
(0.999989 -0.00258263 0)
(0.999985 -0.00368851 -1.5813e-20)
(0.999947 -0.00537948 3.52815e-20)
(0.998969 -0.00293876 3.89903e-20)
(1.02898 -0.0897407 -3.87589e-20)
(0.871215 0.079479 2.07731e-20)
(1.10014 0.0969904 0)
(1.03482 0.0583095 0)
(1.01503 0.0370722 0)
(1.00788 0.0250339 -1.47333e-19)
(1.00474 0.0176696 -1.41615e-19)
(1.00314 0.0128274 1.34985e-19)
(1.00223 0.00943107 0)
(1.00167 0.00692341 0)
(1.00129 0.00499853 0)
(1.00102 0.00347722 0)
(1.00083 0.00225015 0)
(1.00067 0.00124786 0)
(1.00055 0.000425132 0)
(1.00044 -0.000247627 0)
(1.00035 -0.00079032 0)
(1.00026 -0.00121635 0)
(1.00019 -0.00153492 0)
(1.00011 -0.00175284 0)
(1.00004 -0.00187566 0)
(0.999978 -0.00190866 0)
(0.999917 -0.00185773 0)
(0.999862 -0.00172869 2.61567e-19)
(0.999815 -0.00153156 -6.54248e-20)
(0.999776 -0.00127272 -1.31564e-19)
(0.999746 -0.000966456 8.7577e-23)
(0.999727 -0.000626491 -1.65077e-20)
(0.999718 -0.000267489 0)
(0.999721 9.64995e-05 -8.26353e-21)
(0.999736 0.000449647 8.25571e-21)
(0.999761 0.000777134 -1.31959e-19)
(0.999796 0.00106477 1.33702e-19)
(0.99984 0.00129991 0)
(0.999893 0.00147131 -2.60922e-19)
(0.999951 0.00156936 2.02879e-21)
(1.00002 0.0015859 2.58323e-19)
(1.00009 0.00151395 0)
(1.00016 0.00134715 1.27766e-19)
(1.00024 0.00107925 0)
(1.00032 0.000701867 -1.26919e-19)
(1.00042 0.000206321 1.26578e-19)
(1.00052 -0.000420115 0)
(1.00065 -0.00119637 0)
(1.0008 -0.00215083 0)
(1.00099 -0.00332598 1.02364e-22)
(1.00124 -0.00478653 6.45638e-20)
(1.00158 -0.00663198 -6.56105e-20)
(1.00208 -0.0090197 -3.33395e-20)
(1.00284 -0.012206 0)
(1.00405 -0.0166249 0)
(1.00607 -0.0230525 0)
(1.0096 -0.0329382 -3.74099e-20)
(1.0162 -0.0496776 3.883e-20)
(1.02819 -0.0727747 2.39574e-21)
(1.07052 -0.178227 2.79201e-21)
(0.609814 0.0195112 1.08702e-20)
(1.1395 0.106331 -1.57077e-20)
(1.07861 0.0751514 -6.52497e-20)
(1.04111 0.0539984 0)
(1.02463 0.0397922 0)
(1.01603 0.0297101 -1.30672e-19)
(1.01114 0.0223121 0)
(1.00814 0.0167345 0)
(1.00619 0.0124172 0)
(1.00485 0.00899463 2.52309e-19)
(1.00389 0.00622793 0)
(1.00317 0.00395926 0)
(1.0026 0.00208303 0)
(1.00213 0.000528711 0)
(1.00173 -0.000751377 0)
(1.00137 -0.00178939 -2.51011e-19)
(1.00105 -0.00260683 0)
(1.00074 -0.00321871 0)
(1.00046 -0.00363581 0)
(1.00019 -0.00386721 0)
(0.99993 -0.00392172 5.16451e-19)
(0.999693 -0.00380869 0)
(0.999478 -0.00354182 1.95829e-19)
(0.999289 -0.00313257 -1.31235e-19)
(0.999134 -0.00260506 0)
(0.999015 -0.0019814 -3.30749e-20)
(0.998937 -0.00128839 0)
(0.998903 -0.000556015 4.14687e-20)
(0.998913 0.000186154 2.49093e-20)
(0.998968 0.000905683 0)
(0.999066 0.00157318 -1.15857e-19)
(0.999203 0.00215956 4.12379e-21)
(0.999376 0.0026399 -2.05392e-21)
(0.999579 0.00299224 -1.30655e-19)
(0.999807 0.003198 1.29891e-19)
(1.00006 0.0032419 0)
(1.00033 0.00311135 2.48334e-19)
(1.00061 0.00279538 -2.54517e-19)
(1.00092 0.00228337 2.70006e-19)
(1.00124 0.0015619 0)
(1.0016 0.000616455 3.1621e-20)
(1.002 -0.000574406 -2.85151e-22)
(1.00247 -0.00204195 1.25323e-19)
(1.00303 -0.00383251 -4.18645e-22)
(1.00374 -0.00601499 -6.27172e-20)
(1.00466 -0.00869127 0)
(1.00592 -0.0120147 0)
(1.00772 -0.0162175 3.18407e-20)
(1.01039 -0.0216581 -3.28053e-20)
(1.01455 -0.0288997 -4.99856e-22)
(1.02135 -0.0388467 1.00449e-19)
(1.033 -0.0529425 -6.87324e-20)
(1.05411 -0.0735691 6.73468e-20)
(1.10036 -0.105197 0)
(0.96331 -0.117857 3.50099e-20)
(0.481107 0.00943345 0)
(1.11583 0.0896896 0)
(1.11482 0.0799355 2.84152e-20)
(1.06595 0.0606719 0)
(1.04259 0.0468576 1.21399e-19)
(1.02958 0.0363452 0)
(1.02156 0.0280737 0)
(1.01632 0.0214528 0)
(1.01273 0.0160729 0)
(1.01017 0.0116423 0)
(1.00827 0.00795408 0)
(1.00681 0.00485915 0)
(1.00563 0.00225398 2.45568e-19)
(1.00465 6.52459e-05 0)
(1.00379 -0.00175689 0)
(1.00303 -0.00324605 0)
(1.00232 -0.0044247 0)
(1.00165 -0.0053075 0)
(1.00102 -0.005905 0)
(1.00041 -0.00622596 -2.54756e-19)
(0.999839 -0.0062789 0)
(0.999302 -0.00607749 0)
(0.998813 -0.00563255 -1.30661e-19)
(0.998383 -0.00497147 0)
(0.998027 -0.00412388 -1.98689e-19)
(0.997753 -0.00312532 3.30431e-20)
(0.997573 -0.00201731 -1.33243e-19)
(0.997494 -0.000846185 2.60588e-22)
(0.997517 0.000341573 6.68299e-20)
(0.997643 0.00149093 5.00172e-20)
(0.997866 0.00255945 1.32992e-19)
(0.99818 0.00349856 4.13008e-21)
(0.998572 0.00427042 0)
(0.999032 0.00484227 -4.24266e-22)
(0.999547 0.00518711 0)
(1.00011 0.00528381 -1.20315e-19)
(1.00071 0.0051162 -1.27388e-19)
(1.00134 0.00467145 1.2667e-19)
(1.00201 0.00393801 2.51497e-19)
(1.00273 0.00290208 1.01911e-19)
(1.0035 0.00154895 -3.12316e-20)
(1.00436 -0.000144196 -6.19466e-20)
(1.00534 -0.00221073 0)
(1.00651 -0.00470031 0)
(1.00795 -0.00768552 -6.13014e-20)
(1.0098 -0.0112711 6.12101e-20)
(1.01227 -0.0156071 1.53031e-19)
(1.0157 -0.0209076 3.09808e-20)
(1.02063 -0.0274764 -1.52772e-22)
(1.02799 -0.0357408 -3.0404e-20)
(1.03939 -0.0463036 1.21977e-19)
(1.05776 -0.0600386 -9.06548e-20)
(1.08986 -0.0782138 8.58086e-20)
(1.13322 -0.100557 5.47867e-20)
(0.813003 -0.059761 -1.57201e-20)
(0.401325 0.00540687 0)
(1.06151 0.0685236 -2.59756e-20)
(1.13832 0.076199 5.06115e-20)
(1.08857 0.0610392 5.38084e-20)
(1.05967 0.0486996 5.60325e-20)
(1.04324 0.0388159 1.14292e-19)
(1.03271 0.0305825 -1.15666e-19)
(1.02552 0.0236504 -1.16773e-19)
(1.02041 0.0177688 0)
(1.01664 0.0127466 -2.36227e-19)
(1.01375 0.00843736 -4.74999e-19)
(1.01146 0.00473121 -2.38938e-19)
(1.00957 0.00154786 -2.40552e-19)
(1.00797 -0.00117106 0)
(1.00655 -0.00346444 0)
(1.00525 -0.00535801 0)
(1.00404 -0.0068664 -4.9776e-19)
(1.00288 -0.00799784 -2.32266e-21)
(1.00177 -0.00875653 -5.06831e-19)
(1.00069 -0.009145 -2.54706e-19)
(0.99966 -0.00917114 -6.41937e-20)
(0.998689 -0.00883763 1.29524e-19)
(0.997798 -0.00816861 -1.30839e-19)
(0.997012 -0.00719298 1.31878e-19)
(0.996355 -0.00595016 0)
(0.99585 -0.00448811 -6.73214e-20)
(0.995517 -0.00286686 1.34541e-19)
(0.995369 -0.00115348 0)
(0.995413 0.000584979 -3.37176e-20)
(0.995645 0.00226548 -1.68646e-20)
(0.996057 0.00382886 -1.33815e-19)
(0.996633 0.0052033 1.24823e-20)
(0.997352 0.0063364 0)
(0.998189 0.00718413 1.39186e-19)
(0.999121 0.00771204 0)
(1.00013 0.00789506 0)
(1.00119 0.00771663 -2.53027e-19)
(1.00231 0.00716759 -6.15662e-20)
(1.00348 0.00623621 1.32163e-19)
(1.00471 0.00491784 1.16118e-19)
(1.00602 0.00320303 -1.37937e-19)
(1.00745 0.00107623 -1.22145e-19)
(1.00907 -0.00148822 -1.51176e-19)
(1.01095 -0.00452928 9.00917e-20)
(1.01322 -0.00810509 1.19183e-19)
(1.01607 -0.012298 -2.93471e-20)
(1.01978 -0.0172216 0)
(1.02475 -0.0230269 -5.83896e-20)
(1.03166 -0.0299112 -5.78851e-20)
(1.04157 -0.0381264 -2.90127e-20)
(1.05626 -0.047971 -2.75496e-20)
(1.07899 -0.0598955 -8.1806e-20)
(1.11685 -0.0744932 -5.09336e-20)
(1.12281 -0.0825065 0)
(0.694087 -0.029075 8.36672e-20)
(0.351798 0.00328498 0)
(0.99979 0.0510853 0)
(1.14697 0.0687 -9.47945e-20)
(1.10776 0.058368 -1.00184e-19)
(1.07509 0.0474684 0)
(1.05615 0.0384379 0)
(1.04376 0.0306136 1.09111e-19)
(1.03505 0.0237486 0)
(1.02867 0.0177028 0)
(1.02381 0.0123671 0)
(1.01999 0.00765569 -2.30408e-19)
(1.01688 0.00350278 -2.32992e-19)
(1.01427 -0.000141031 0)
(1.01198 -0.00330952 0)
(1.00992 -0.00602202 -2.31849e-21)
(1.00801 -0.00828864 0)
(1.00618 -0.0101099 9.80093e-19)
(1.00441 -0.0114802 9.95337e-19)
(1.00268 -0.0123901 -5.03478e-19)
(1.00098 -0.0128354 2.5231e-19)
(0.999343 -0.012801 3.20213e-19)
(0.997783 -0.0122979 -6.51027e-20)
(0.99634 -0.0113435 3.94464e-19)
(0.995057 -0.00997032 -6.60117e-20)
(0.993976 -0.00822675 2.38861e-22)
(0.993141 -0.00617501 -1.3489e-19)
(0.992588 -0.00389864 1.71015e-19)
(0.992341 -0.00149106 1.36063e-19)
(0.992414 0.000952515 -4.86586e-22)
(0.992801 0.00331212 6.80337e-20)
(0.993482 0.00550547 6.75255e-20)
(0.994432 0.00743207 0)
(0.995608 0.00902132 -1.19881e-19)
(0.996968 0.0102181 0)
(0.998469 0.0109811 0)
(1.00007 0.0112851 1.59976e-19)
(1.00176 0.0111194 -1.2725e-19)
(1.0035 0.0104797 0)
(1.00529 0.00936333 7.70308e-21)
(1.00715 0.00778104 0)
(1.00909 0.00573558 0)
(1.01118 0.00322605 -1.34556e-19)
(1.01349 0.000242911 1.48546e-20)
(1.01612 -0.00323389 2.01927e-22)
(1.01922 -0.00723799 -1.42951e-20)
(1.02302 -0.0118188 -1.42523e-19)
(1.02782 -0.0170442 -1.39173e-20)
(1.03409 -0.0229991 1.24668e-19)
(1.04254 -0.0297879 -1.09272e-19)
(1.05426 -0.0375255 0)
(1.0711 -0.0463448 5.13122e-20)
(1.09663 -0.056538 8.7468e-22)
(1.13382 -0.0677896 -4.73262e-20)
(1.08954 -0.064644 -7.1632e-20)
(0.613723 -0.0165476 0)
(0.31878 0.00221012 9.76508e-21)
(0.942106 0.0382207 -2.5118e-20)
(1.14399 0.0599094 4.51671e-20)
(1.12337 0.0542454 0)
(1.08899 0.0446518 0)
(1.06811 0.0363444 -1.00392e-19)
(1.05438 0.0289625 0)
(1.04455 0.022281 -2.11374e-19)
(1.03716 0.016209 -2.15205e-19)
(1.03141 0.0106943 0)
(1.02678 0.00569704 -1.11482e-19)
(1.02292 0.00119238 2.26562e-19)
(1.01959 -0.00284319 -4.58784e-19)
(1.01662 -0.00641851 0)
(1.01388 -0.00953159 0)
(1.01127 -0.0121714 0)
(1.00874 -0.0143167 -3.75337e-21)
(1.00623 -0.015941 0)
(1.00375 -0.0170221 0)
(1.00127 -0.0175193 2.50963e-19)
(0.998845 -0.0174158 3.82321e-22)
(0.996509 -0.0167056 0)
(0.994324 -0.0153979 0)
(0.99236 -0.0135238 4.03544e-19)
(0.990691 -0.011139 2.72317e-19)
(0.989393 -0.00832087 3.44367e-20)
(0.988528 -0.00519395 0)
(0.988143 -0.00187664 2.78358e-19)
(0.988257 0.00149334 1.04291e-19)
(0.988864 0.00473891 -2.63218e-22)
(0.989927 0.00774845 0)
(0.991397 0.0103884 0)
(0.993203 0.0125564 7.51729e-21)
(0.995272 0.0141885 0)
(0.99753 0.0152403 0)
(0.999915 0.0156915 -1.14999e-23)
(1.00239 0.0155469 -2.48464e-19)
(1.0049 0.0148058 -1.24334e-19)
(1.00744 0.0134931 1.21392e-19)
(1.01002 0.0116371 7.41213e-21)
(1.01268 0.0092612 -1.17062e-19)
(1.01548 0.00638483 7.40015e-22)
(1.0185 0.0030203 6.70343e-22)
(1.02186 -0.000829091 1.42512e-20)
(1.02574 -0.00516998 -9.7492e-20)
(1.03036 -0.0100194 0)
(1.03608 -0.0154045 -1.21241e-19)
(1.04335 -0.0213552 0)
(1.0529 -0.0279166 -5.14645e-20)
(1.06585 -0.0351411 0)
(1.08411 -0.0430978 4.88152e-20)
(1.11135 -0.0520004 -2.24987e-22)
(1.1417 -0.060165 -2.18097e-20)
(1.04907 -0.0502915 -6.8849e-20)
(0.558963 -0.0110443 3.37829e-20)
(0.295403 0.00159906 0)
(0.8922 0.0289981 -2.47253e-20)
(1.1334 0.0512147 0)
(1.13539 0.0493958 0)
(1.1017 0.0410294 4.59246e-20)
(1.07931 0.0332549 7.36577e-22)
(1.06457 0.0262196 0)
(1.05392 0.0196999 -9.99496e-20)
(1.04579 0.0136253 -2.05734e-19)
(1.03933 0.00797082 0)
(1.03402 0.0027261 0)
(1.02949 -0.00211191 0)
(1.02551 -0.00653464 0)
(1.02186 -0.0105278 -3.36058e-19)
(1.01843 -0.0140662 -1.13342e-19)
(1.01509 -0.0171152 0)
(1.01177 -0.0196324 1.4728e-20)
(1.00841 -0.0215766 3.58246e-19)
(1.00501 -0.022873 -8.05074e-22)
(1.00158 -0.0234682 -1.2509e-19)
(0.998146 -0.0233105 0)
(0.994796 -0.0223741 1.30333e-19)
(0.991618 -0.0206468 -1.675e-22)
(0.988723 -0.0181508 1.37794e-19)
(0.986237 -0.0149457 0)
(0.984285 -0.0111267 -7.01102e-20)
(0.982978 -0.00686831 -7.12311e-20)
(0.982392 -0.00233388 1.44021e-19)
(0.982566 0.00227717 7.20103e-20)
(0.983488 0.00670525 -1.41487e-19)
(0.985096 0.0107926 0)
(0.987298 0.0143523 -1.72865e-20)
(0.989973 0.0172498 -1.3551e-19)
(0.993 0.0194114 1.6562e-20)
(0.996258 0.0207951 1.24623e-21)
(0.999651 0.021399 2.48688e-19)
(1.00311 0.0212469 1.24682e-19)
(1.00655 0.0203568 1.21583e-19)
(1.00997 0.0187938 -1.17912e-19)
(1.01338 0.0166116 0)
(1.01681 0.0138612 1.20698e-19)
(1.02034 0.0105879 0)
(1.02406 0.00682889 0)
(1.02811 0.0026122 -1.09452e-19)
(1.03267 -0.00204396 0)
(1.03799 -0.00712793 5.1817e-20)
(1.04442 -0.0126321 1.02539e-19)
(1.05244 -0.0185646 2.55831e-20)
(1.06277 -0.0249345 -9.75085e-20)
(1.07656 -0.0317663 0)
(1.09584 -0.0391178 4.63101e-20)
(1.12366 -0.0470591 0)
(1.14254 -0.0524463 -2.02715e-20)
(1.00877 -0.0392309 4.40253e-20)
(0.518891 -0.00794984 0)
(0.27812 0.0011904 0)
(0.850353 0.0223165 -2.42253e-20)
(1.11861 0.0432267 -4.10171e-20)
(1.14408 0.0442257 4.12638e-20)
(1.11345 0.037022 -4.27067e-20)
(1.08999 0.0296214 -8.8955e-20)
(1.07445 0.0227993 0)
(1.06321 0.0163618 0)
(1.05453 0.0102379 0)
(1.04755 0.00441777 0)
(1.0417 -0.00109509 2.04537e-19)
(1.03663 -0.00628685 0)
(1.03205 -0.0111333 -4.23511e-19)
(1.02778 -0.0156015 0)
(1.02365 -0.0196428 0)
(1.01955 -0.0232026 4.21371e-19)
(1.01538 -0.0262114 3.42531e-19)
(1.01106 -0.0285761 -1.19219e-19)
(1.00659 -0.0302047 -1.20322e-19)
(1.00198 -0.0309999 1.23885e-19)
(0.997283 -0.0308603 5.11512e-19)
(0.992605 -0.0297156 2.6381e-19)
(0.988088 -0.0275219 -1.34312e-19)
(0.983908 -0.0242722 0)
(0.980266 -0.020021 1.89176e-21)
(0.977372 -0.0148809 7.20341e-20)
(0.97542 -0.00909557 -7.2257e-20)
(0.974541 -0.0028992 -1.85991e-19)
(0.974806 0.00341097 4.77128e-22)
(0.976189 0.00944555 0)
(0.978588 0.0149717 -7.16017e-20)
(0.981839 0.0197262 -1.39628e-19)
(0.985731 0.0235318 1.35979e-19)
(0.990064 0.026312 -1.32177e-19)
(0.994651 0.0280411 -1.62203e-19)
(0.999348 0.0287597 -2.50577e-19)
(1.00402 0.0285053 6.0966e-20)
(1.00857 0.0273591 2.95533e-20)
(1.013 0.0254308 0)
(1.01732 0.0228118 0)
(1.02157 0.019588 -6.9364e-21)
(1.02583 0.0158353 2.15957e-19)
(1.03021 0.0116167 1.06447e-19)
(1.03488 0.00698367 0)
(1.04003 0.00198158 1.02274e-19)
(1.04591 -0.00336196 2.45187e-20)
(1.05288 -0.00902754 -2.48793e-20)
(1.06143 -0.015002 5.94619e-21)
(1.07231 -0.0212805 9.0581e-20)
(1.08672 -0.0278817 3.54896e-19)
(1.10674 -0.0348573 1.71679e-19)
(1.1339 -0.0420278 -4.02816e-20)
(1.13835 -0.0451138 -4.01068e-20)
(0.972235 -0.0308659 -6.53846e-20)
(0.489404 -0.00582579 1.30444e-19)
(0.265043 0.000887236 0)
(0.815765 0.0173604 -4.73664e-20)
(1.10205 0.0361507 3.92348e-20)
(1.1499 0.0389995 -3.84065e-20)
(1.12436 0.0328661 8.02049e-20)
(1.10037 0.0257337 8.45244e-20)
(1.08421 0.0190011 -1.74263e-19)
(1.07254 0.0125493 8.25929e-22)
(1.06349 0.00630477 -9.22569e-20)
(1.05613 0.000255584 -1.91573e-19)
(1.04989 -0.00558809 -1.94163e-19)
(1.04438 -0.0112033 0)
(1.03933 -0.0165554 2.01205e-19)
(1.0345 -0.0215942 0)
(1.02973 -0.0262567 -4.36178e-19)
(1.02487 -0.0304742 -5.29755e-20)
(1.01978 -0.0341472 -2.22149e-19)
(1.0144 -0.0371385 3.44682e-19)
(1.00869 -0.0393076 -4.7126e-19)
(1.00267 -0.0405014 0)
(0.99639 -0.0405525 2.53708e-19)
(0.989966 -0.0392939 -3.93343e-19)
(0.983628 -0.0366376 1.35732e-19)
(0.97764 -0.0325118 0)
(0.972324 -0.0269385 -1.44997e-19)
(0.968033 -0.0200383 7.32764e-20)
(0.965107 -0.0121536 1.54294e-19)
(0.963782 -0.0036321 1.52985e-19)
(0.964187 0.00506465 -1.54098e-19)
(0.966275 0.0133295 0)
(0.969859 0.020808 0)
(0.974652 0.0271139 1.78367e-19)
(0.980286 0.0320254 1.93039e-21)
(0.986429 0.0354788 -2.34026e-19)
(0.992799 0.0375063 -3.86099e-19)
(0.999166 0.0382017 6.21863e-20)
(1.00532 0.0376536 -2.9847e-20)
(1.01119 0.0360533 0)
(1.01676 0.0335603 0)
(1.02205 0.03032 9.58078e-20)
(1.02713 0.0264604 1.1838e-19)
(1.0321 0.0220897 -1.14631e-20)
(1.03709 0.0173014 0)
(1.04228 0.012167 -9.8574e-20)
(1.0479 0.00673742 7.11376e-20)
(1.0542 0.00105307 1.87732e-19)
(1.06157 -0.00485562 0)
(1.07049 -0.0109602 0)
(1.08175 -0.0172486 5.38351e-21)
(1.09656 -0.0237506 -1.24747e-19)
(1.11703 -0.0305191 1.20228e-19)
(1.14216 -0.0370398 -1.95331e-20)
(1.13131 -0.038367 1.6958e-19)
(0.940953 -0.024428 -1.69141e-19)
(0.46793 -0.00443187 2.69957e-19)
(0.255045 0.000660095 0)
(0.787352 0.0135966 -2.28241e-20)
(1.08534 0.0300092 5.60062e-20)
(1.15346 0.0339164 -3.61821e-20)
(1.1345 0.0287201 -7.60558e-20)
(1.1106 0.0217916 -1.57743e-19)
(1.09399 0.0150496 -8.22603e-20)
(1.08204 0.00849465 -8.50909e-20)
(1.07277 0.00205071 0)
(1.06519 -0.00430194 0)
(1.0587 -0.0105547 0)
(1.0529 -0.0166829 0)
(1.04748 -0.0226498 9.49992e-20)
(1.04222 -0.0283958 -1.94754e-19)
(1.03689 -0.0338496 0)
(1.03131 -0.038951 1.56068e-19)
(1.02532 -0.0435343 -1.05758e-19)
(1.01882 -0.047436 3.62153e-21)
(1.01173 -0.050472 2.3264e-19)
(1.00404 -0.0524083 2.55024e-21)
(0.995773 -0.0529822 2.54123e-19)
(0.987069 -0.0518883 -2.6378e-19)
(0.978217 -0.0488898 0)
(0.969635 -0.0438269 -1.45931e-19)
(0.961826 -0.0366193 -1.5321e-19)
(0.955379 -0.0273712 0)
(0.950915 -0.0165115 -1.618e-19)
(0.948879 -0.00463494 2.07746e-19)
(0.949512 0.00752417 4.12897e-20)
(0.952727 0.018979 -2.18627e-19)
(0.958174 0.029161 -7.79007e-20)
(0.965304 0.0374636 -1.27947e-19)
(0.973493 0.0436571 1.39796e-19)
(0.982187 0.0477456 0)
(0.990965 0.0498892 2.55736e-19)
(0.999439 0.0502353 -3.07e-20)
(1.00741 0.0490652 2.92898e-20)
(1.0148 0.0466747 0)
(1.0216 0.0433061 2.70993e-20)
(1.02789 0.0391709 1.3039e-19)
(1.03376 0.0344446 0)
(1.03936 0.0292737 -9.77503e-20)
(1.04487 0.0237593 -9.37478e-20)
(1.05049 0.0179838 0)
(1.05644 0.0120151 8.93153e-20)
(1.06302 0.00590559 -4.3679e-20)
(1.0706 -0.00032198 0)
(1.07972 -0.00664535 -4.1319e-20)
(1.09116 -0.0130541 -8.11743e-20)
(1.10624 -0.0195783 -7.86763e-20)
(1.12683 -0.0262409 3.81797e-20)
(1.14881 -0.0321959 1.08196e-19)
(1.1228 -0.0323069 7.19384e-20)
(0.914395 -0.019405 -1.42666e-19)
(0.451609 -0.00338654 -9.13003e-20)
(0.247344 0.000493089 0)
(0.764086 0.0106898 0)
(1.06946 0.0247621 0)
(1.15537 0.029131 0)
(1.14394 0.0247113 0)
(1.1208 0.0179493 0)
(1.10392 0.0111305 0)
(1.09182 0.0044033 0)
(1.08248 -0.00230887 1.64245e-19)
(1.07484 -0.00903517 0)
(1.06826 -0.0157744 -1.69749e-19)
(1.06233 -0.0225121 0)
(1.05673 -0.0292103 0)
(1.05118 -0.035821 3.71021e-19)
(1.04545 -0.042293 0)
(1.03927 -0.0485223 0)
(1.03248 -0.0543531 0)
(1.02488 -0.059594 2.13379e-19)
(1.01633 -0.0639853 -2.19911e-19)
(1.00672 -0.0672123 0)
(0.996057 -0.0688852 -1.23644e-19)
(0.984425 -0.0685292 -2.7258e-19)
(0.9721 -0.0655948 0)
(0.959706 -0.0597102 -1.47218e-19)
(0.948047 -0.0505872 3.98495e-21)
(0.938123 -0.0381835 -5.01331e-19)
(0.931084 -0.0230154 -1.77115e-19)
(0.92784 -0.00608625 -1.38862e-21)
(0.928869 0.0113063 -8.84733e-20)
(0.934005 0.0274893 1.06512e-20)
(0.942525 0.041458 1.60083e-19)
(0.953352 0.0522956 1.89028e-20)
(0.96538 0.059838 4.45151e-21)
(0.977735 0.0643125 -7.98259e-19)
(0.989705 0.0660499 1.86138e-19)
(1.00081 0.0654645 2.95727e-20)
(1.01091 0.0631076 5.61621e-20)
(1.01996 0.0594045 2.64234e-20)
(1.02804 0.0547115 2.45925e-20)
(1.03527 0.0493152 -2.90152e-19)
(1.04184 0.0434243 -2.73673e-19)
(1.04795 0.0372116 -3.71678e-19)
(1.05382 0.0307895 -8.79054e-20)
(1.05966 0.0242379 0)
(1.06575 0.0176191 2.1158e-20)
(1.07242 0.0109812 0)
(1.08006 0.00434606 -3.94408e-20)
(1.08923 -0.00227362 -3.84167e-20)
(1.10075 -0.00888215 -1.87858e-20)
(1.11595 -0.0155133 7.2771e-20)
(1.1363 -0.0221378 0)
(1.15419 -0.0276187 0)
(1.11388 -0.0269781 0)
(0.892212 -0.0154413 1.88952e-20)
(0.439244 -0.0025896 8.76891e-20)
(0.241424 0.000372691 0)
(0.745161 0.00843038 0)
(1.05498 0.0203613 1.67906e-20)
(1.15618 0.0247743 3.17059e-20)
(1.15278 0.0209622 0)
(1.13101 0.0143453 0)
(1.11408 0.00741567 7.03528e-20)
(1.10198 0.00047083 0)
(1.09272 -0.00655629 1.51367e-19)
(1.08517 -0.0137065 0)
(1.0787 -0.0209933 -3.1435e-19)
(1.07284 -0.0284173 -7.98254e-20)
(1.06727 -0.0359554 3.30287e-19)
(1.06167 -0.0435794 7.09652e-19)
(1.05575 -0.0512896 -1.77414e-19)
(1.04924 -0.0589504 4.67729e-20)
(1.04188 -0.066428 9.4093e-20)
(1.03337 -0.0735311 0)
(1.02344 -0.0799739 0)
(1.01183 -0.0853348 0)
(0.998383 -0.0890831 1.19974e-19)
(0.983078 -0.0905089 -1.37268e-19)
(0.966076 -0.088669 -8.44005e-19)
(0.948028 -0.0825608 1.50507e-19)
(0.930227 -0.0714747 -3.34989e-19)
(0.914377 -0.0548811 -7.17851e-19)
(0.902717 -0.0332646 2.86695e-19)
(0.897259 -0.00829179 -1.99663e-19)
(0.899016 0.0173687 -1.95211e-19)
(0.907665 0.0409318 -2.53126e-20)
(0.921581 0.0602806 -8.71131e-20)
(0.938516 0.0741567 -1.60431e-19)
(0.956475 0.0827493 -2.9434e-19)
(0.974019 0.0867685 -5.40651e-19)
(0.990116 0.0870085 1.20432e-19)
(1.00441 0.0844922 -1.15124e-19)
(1.01684 0.0800375 8.10914e-20)
(1.02756 0.0742704 -2.98808e-19)
(1.03678 0.0676574 -9.63668e-20)
(1.04478 0.0605399 -8.88141e-20)
(1.05181 0.0531489 1.75576e-19)
(1.05814 0.0456339 0)
(1.06409 0.0381094 -6.10974e-20)
(1.06993 0.0306428 0)
(1.07598 0.0232785 0)
(1.08256 0.0160387 3.83912e-20)
(1.0901 0.00893332 5.58302e-20)
(1.09916 0.00195849 3.52144e-20)
(1.11061 -0.00490548 3.40869e-20)
(1.12578 -0.0116949 3.28399e-20)
(1.14551 -0.0183174 0)
(1.15863 -0.0234121 -1.62805e-20)
(1.10519 -0.022387 -3.21241e-20)
(0.8738 -0.0123201 7.39537e-20)
(0.429934 -0.00200733 -2.43531e-19)
(0.236819 0.000295162 0)
(0.729716 0.00670103 -1.94936e-20)
(1.04211 0.0167445 0)
(1.15633 0.0209491 0)
(1.16107 0.0175939 5.97847e-20)
(1.14124 0.0111101 6.27586e-20)
(1.1245 0.00405946 -3.25739e-20)
(1.11253 -0.00312077 0)
(1.10351 -0.0104752 3.43269e-20)
(1.09625 -0.0180623 -6.97119e-20)
(1.09008 -0.0259151 0)
(1.08454 -0.034058 -7.24408e-20)
(1.07926 -0.0425072 -2.3961e-21)
(1.07393 -0.051284 -5.80204e-20)
(1.06818 -0.0603878 3.79955e-20)
(1.06174 -0.069751 -3.7834e-21)
(1.05423 -0.0792954 1.76776e-19)
(1.04526 -0.0888625 0)
(1.03435 -0.0981956 3.85585e-19)
(1.02104 -0.106883 -1.06463e-21)
(1.00477 -0.114232 0)
(0.985188 -0.119294 -3.72577e-19)
(0.962135 -0.120647 -1.36293e-19)
(0.935874 -0.116253 6.06914e-19)
(0.907988 -0.104047 4.96344e-21)
(0.881485 -0.0823393 0)
(0.860807 -0.0507177 2.0177e-19)
(0.850821 -0.012091 -1.19145e-19)
(0.854106 0.0279852 1.10233e-19)
(0.869796 0.0636881 -4.13389e-19)
(0.893889 0.0905809 1.79073e-19)
(0.921334 0.107389 3.30652e-19)
(0.94853 0.115609 5.7133e-19)
(0.973125 0.117036 -1.2502e-19)
(0.994281 0.113805 -1.26876e-19)
(1.01202 0.107662 1.03479e-19)
(1.0267 0.0997814 -3.83266e-19)
(1.03878 0.090971 2.81576e-19)
(1.0487 0.0817343 8.77046e-20)
(1.05696 0.0723848 0)
(1.06399 0.0631349 1.1482e-19)
(1.0702 0.0540984 -3.47741e-20)
(1.07593 0.0453314 0)
(1.0815 0.0368578 -7.06756e-20)
(1.08725 0.0286808 -7.12543e-20)
(1.09353 0.0208004 6.79803e-20)
(1.10078 0.0131959 -1.69628e-19)
(1.10959 0.00584235 -6.66811e-20)
(1.12083 -0.00129888 3.19121e-20)
(1.13581 -0.00826596 3.07659e-20)
(1.15453 -0.0148929 -1.48061e-20)
(1.16238 -0.0196675 -4.35941e-20)
(1.09694 -0.0184917 7.26356e-21)
(0.858076 -0.00983849 -8.50589e-21)
(0.422091 -0.00159093 0)
(0.233183 0.000238006 0)
(0.717079 0.00541646 0)
(1.03081 0.013878 -2.88133e-20)
(1.15611 0.0177452 0)
(1.16893 0.0147295 -2.7165e-20)
(1.15151 0.00838095 2.81216e-20)
(1.1352 0.001232 5.82634e-20)
(1.12351 -0.00615802 0)
(1.11486 -0.0138166 1.2179e-19)
(1.10806 -0.0218171 0)
(1.1024 -0.0302179 -2.56281e-19)
(1.09743 -0.0390716 -1.30853e-19)
(1.09277 -0.0484387 -4.17602e-21)
(1.08808 -0.0583551 -1.39523e-19)
(1.083 -0.0689363 1.39842e-19)
(1.07719 -0.0801666 1.47259e-19)
(1.07024 -0.0920794 -7.34269e-20)
(1.06162 -0.104646 -2.40157e-19)
(1.05068 -0.117759 -7.99239e-20)
(1.03659 -0.131131 1.8039e-19)
(1.01837 -0.144226 0)
(0.994821 -0.155951 -9.80874e-21)
(0.964721 -0.164403 2.50993e-19)
(0.927361 -0.166495 0)
(0.883093 -0.157148 0)
(0.836226 -0.130766 4.28337e-19)
(0.796101 -0.0834177 -6.61376e-21)
(0.775703 -0.019333 6.69216e-21)
(0.782572 0.0484319 -5.36243e-19)
(0.814165 0.105433 4.7008e-19)
(0.859041 0.14223 3.94043e-19)
(0.905064 0.159346 6.62004e-19)
(0.945885 0.16252 4.65365e-19)
(0.979277 0.156959 2.42101e-19)
(1.00578 0.146819 0)
(1.02645 0.13456 0)
(1.04243 0.121571 2.16471e-19)
(1.05482 0.108576 1.72545e-21)
(1.06455 0.0959978 -8.15272e-20)
(1.07238 0.0840133 -6.84216e-20)
(1.07883 0.0726856 -1.35197e-19)
(1.08441 0.0620105 9.99808e-20)
(1.08949 0.051948 0)
(1.09444 0.0424578 3.23111e-20)
(1.0996 0.0334871 -3.08704e-20)
(1.10534 0.0249833 0)
(1.1121 0.0169016 0)
(1.12048 0.00918693 -1.67858e-21)
(1.13137 0.00178385 0)
(1.14598 -0.00534952 0)
(1.16333 -0.0119776 -2.64622e-22)
(1.16568 -0.0165027 0)
(1.08953 -0.0153441 -3.95046e-20)
(0.84499 -0.0079449 0)
(0.415394 -0.00124253 -5.7213e-20)
(0.230221 0.000213773 0)
(0.706672 0.00453414 4.13582e-21)
(1.02106 0.0117371 3.2904e-21)
(1.15579 0.0152347 0)
(1.17638 0.012474 3.04411e-21)
(1.16174 0.00626945 0)
(1.14609 -0.000934072 0)
(1.13481 -0.00848061 0)
(1.12669 -0.0163752 0)
(1.12052 -0.0247053 0)
(1.1156 -0.033552 0)
(1.11146 -0.0430001 0)
(1.10775 -0.0531418 0)
(1.10411 -0.0641335 1.77975e-19)
(1.10025 -0.0760955 -6.12384e-20)
(1.09579 -0.0891437 -1.26182e-19)
(1.09032 -0.103456 -1.27581e-19)
(1.08326 -0.119225 3.97026e-21)
(1.07386 -0.136651 -7.90984e-20)
(1.06105 -0.155881 -2.45342e-21)
(1.04329 -0.176897 3.42762e-19)
(1.01835 -0.199272 -2.11297e-19)
(0.983017 -0.221469 0)
(0.933273 -0.239918 2.50385e-19)
(0.864858 -0.246251 -1.38235e-18)
(0.777973 -0.223759 8.70927e-19)
(0.69111 -0.153239 5.6124e-19)
(0.643356 -0.0355693 2.23008e-18)
(0.65959 0.0937399 0)
(0.732053 0.190846 1.03078e-18)
(0.822639 0.235365 -1.44597e-18)
(0.900531 0.24075 -4.30183e-19)
(0.958703 0.227144 -1.19428e-19)
(1.00041 0.206538 -6.25923e-19)
(1.0299 0.18437 3.75468e-21)
(1.05083 0.162947 5.11612e-19)
(1.06586 0.143193 -4.03696e-20)
(1.07683 0.125224 2.01414e-19)
(1.08503 0.108991 6.41674e-20)
(1.09133 0.0942716 1.17388e-19)
(1.09639 0.0808801 0)
(1.1007 0.06864 2.9495e-20)
(1.10466 0.0573836 4.9399e-20)
(1.10865 0.0469744 5.14352e-20)
(1.11294 0.037306 -2.74612e-20)
(1.11791 0.0282753 9.23422e-20)
(1.124 0.0197962 -2.4012e-20)
(1.13182 0.0117838 -1.06489e-19)
(1.14224 0.00417691 -1.20924e-20)
(1.15631 -0.0030778 -2.48378e-20)
(1.17197 -0.00967247 -2.33396e-20)
(1.16865 -0.0139772 1.23584e-20)
(1.08287 -0.0129124 1.24372e-20)
(0.833919 -0.00659061 7.9033e-22)
(0.409875 -0.00105062 2.70782e-20)
(0.227388 0.000258858 8.35934e-20)
(0.697646 0.0040466 -1.19265e-19)
(1.01244 0.0103062 1.64481e-22)
(1.15541 0.0134633 4.33121e-20)
(1.18348 0.0109049 -4.28967e-20)
(1.17188 0.00487309 -4.39712e-20)
(1.1571 -0.00230897 0)
(1.14634 -0.00991797 1.36459e-22)
(1.13885 -0.0179361 -2.30405e-20)
(1.13345 -0.0264611 1.16771e-20)
(1.12944 -0.0355954 -1.17581e-20)
(1.12637 -0.0454506 -1.17562e-20)
(1.12391 -0.0561592 6.07436e-21)
(1.12175 -0.0679129 2.33195e-20)
(1.11965 -0.0809005 4.02411e-20)
(1.11729 -0.0953676 7.95394e-20)
(1.11433 -0.111659 3.00932e-19)
(1.11032 -0.130204 5.49337e-20)
(1.10456 -0.151593 0)
(1.09608 -0.176675 0)
(1.08335 -0.206479 -1.15639e-19)
(1.06357 -0.242396 2.96576e-20)
(1.03183 -0.285939 -4.29031e-19)
(0.97897 -0.337643 1.95895e-19)
(0.88703 -0.393275 -2.56194e-19)
(0.726769 -0.417917 0)
(0.512009 -0.326989 3.60288e-18)
(0.382913 -0.0784277 -1.18871e-18)
(0.426636 0.212648 -5.24179e-18)
(0.623365 0.388699 2.07484e-18)
(0.815445 0.408546 0)
(0.937596 0.359705 -8.55857e-19)
(1.00666 0.306084 2.8843e-19)
(1.04726 0.25896 2.43617e-19)
(1.07205 0.21989 1.15277e-19)
(1.08777 0.187711 1.04818e-19)
(1.0981 0.160892 1.51613e-19)
(1.10516 0.138171 0)
(1.11003 0.118664 -3.5083e-20)
(1.1136 0.101649 2.75476e-19)
(1.11644 0.086612 0)
(1.11888 0.0731631 -1.34457e-21)
(1.12126 0.0610237 -1.04371e-20)
(1.1239 0.0499641 -3.36453e-20)
(1.12706 0.0398052 -1.10277e-20)
(1.13106 0.0304165 2.09856e-20)
(1.13633 0.021677 -1.09076e-20)
(1.14344 0.013487 -1.12995e-20)
(1.15326 0.00575796 -8.19672e-22)
(1.16664 -0.00154573 8.34871e-21)
(1.18036 -0.00806613 7.39903e-21)
(1.17144 -0.0121731 -1.50158e-20)
(1.07712 -0.0112225 -2.1524e-20)
(0.824692 -0.00574472 -1.24226e-20)
(0.40528 -0.000985108 -2.31269e-20)
(0.220064 0.000336595 -1.17404e-18)
(0.686558 0.00390326 0)
(1.00311 0.00945358 -3.26351e-19)
(1.1545 0.0123659 2.96911e-19)
(1.1902 0.0100459 2.94731e-19)
(1.1819 0.00426997 0)
(1.16812 -0.00277804 3.0664e-19)
(1.15795 -0.0103233 0)
(1.15114 -0.0183207 0)
(1.14661 -0.0268666 1.54658e-19)
(1.14362 -0.0360749 0)
(1.14177 -0.0460688 -1.5003e-19)
(1.14076 -0.0569996 -5.0009e-21)
(1.14037 -0.0690808 1.91645e-20)
(1.14041 -0.0825456 2.87988e-20)
(1.14071 -0.097709 2.84871e-20)
(1.1411 -0.114997 1.76169e-20)
(1.14138 -0.135008 -2.06986e-21)
(1.14129 -0.158599 -3.79465e-20)
(1.14051 -0.187128 3.16173e-20)
(1.13849 -0.222678 -1.56099e-19)
(1.13405 -0.26884 1.80071e-20)
(1.12524 -0.332205 0)
(1.10783 -0.428725 0)
(1.04777 -0.577059 8.69124e-20)
(0.798771 -0.66213 0)
(0.208987 -0.356263 6.36005e-17)
(0.353154 0.447099 -1.31124e-19)
(0.893486 0.653864 -1.22033e-20)
(1.0892 0.490438 -2.51692e-20)
(1.11488 0.369981 5.57554e-20)
(1.12723 0.293624 1.64165e-19)
(1.13343 0.240433 1.59261e-19)
(1.13644 0.200779 -2.75683e-20)
(1.13773 0.169596 -7.80369e-22)
(1.13821 0.144232 1.03351e-20)
(1.13823 0.122987 -1.35865e-22)
(1.13809 0.104808 -3.05166e-20)
(1.13799 0.0889587 6.46771e-21)
(1.13811 0.0749409 -1.64525e-20)
(1.13862 0.0623976 -9.08271e-21)